216  
3    

1    
  0.0076227163122677   0.0000000000000000   0.0064725725969423
  -0.0979758300    0.0060712400   -0.1491053900
   0.0084247300   -0.0001535400   -0.0028101000
   0.0083789600   -0.0001629600   -0.0027934800
  -0.0068480400   -0.0001544000   -0.0027995200
   0.0044416000    0.0040137900   -0.0005971100
   0.0027478700   -0.0018566000   -0.0040762600
  -0.0068444200   -0.0001638700   -0.0028016200
   0.0027418900   -0.0018563800   -0.0040867000
   0.0044415000    0.0040127000   -0.0005955300
  -0.0307617000    0.0145657100    0.0631655300
   0.0078249900    0.0012498200    0.0039284300
   0.0015615700   -0.0016951300   -0.0034457700
  -0.0031816100    0.0029019700    0.0019708400
   0.0037702400    0.0033692200    0.0006362000
   0.0004599500    0.0003871100   -0.0005562300
  -0.0061227400   -0.0033560300   -0.0015018400
   0.0030839600   -0.0022439800    0.0025437500
   0.0027012700    0.0023015100   -0.0006196900
  -0.0025395700   -0.0023477700    0.0169138200
   0.0015308400   -0.0000620100    0.0025400600
   0.0015277900   -0.0000624200    0.0025334500
  -0.0021764200   -0.0000620700    0.0025387600
   0.0014382900    0.0010661500    0.0005976700
   0.0010540400   -0.0002010100    0.0021209100
  -0.0021752400   -0.0000643400    0.0025382400
   0.0010534500   -0.0002024500    0.0021188700
   0.0014357400    0.0010642500    0.0005974500
  -0.0303942600    0.0143935900    0.0625892100
   0.0015517100   -0.0017043600   -0.0034577800
   0.0078028700    0.0012497600    0.0039058100
  -0.0061281300   -0.0033541000   -0.0015072900
   0.0027009200    0.0023014400   -0.0006211800
   0.0030832200   -0.0022369400    0.0025404400
  -0.0031710900    0.0029049200    0.0019630800
   0.0004507700    0.0003898900   -0.0005457800
   0.0037676100    0.0033658200    0.0006330300
   0.0165478100    0.0213264700    0.0198790800
   0.0040579500   -0.0007053400   -0.0006148800
  -0.0103229800    0.0055811000   -0.0118085100
  -0.0011510800    0.0007566900   -0.0005613200
   0.0026868900    0.0000002600   -0.0003844800
  -0.0014730600    0.0009770200   -0.0009359700
   0.0335118200   -0.0382859100   -0.0000590600
   0.0042824000   -0.0010297700   -0.0008802800
   0.0065231200    0.0112701100   -0.0317234000
   0.0011877700    0.0030248300    0.0099610200
   0.0027650000   -0.0004780700    0.0010197300
  -0.0048415000    0.0030109000    0.0028528700
  -0.0008192100    0.0005236600    0.0010689800
   0.0018801000    0.0000006600    0.0003849400
  -0.0013400000    0.0009551200    0.0004556600
   0.0015467700   -0.0033838900    0.0095482700
   0.0031997700   -0.0010010100    0.0005060000
  -0.0044784200   -0.0026468000    0.0024449100
  -0.0044762400   -0.0026391100    0.0024402900
   0.0031979700   -0.0009982900    0.0005004700
   0.0015479600   -0.0033752500    0.0095217000
  -0.0013380100    0.0009581100    0.0004507500
   0.0018785600    0.0000015700    0.0003836200
  -0.0008195000    0.0005203400    0.0010682000
  -0.0048246100    0.0029923400    0.0028728900
   0.0027634900   -0.0004793800    0.0010158700
   0.0011867900    0.0030182500    0.0099490400
   0.0065292300    0.0112871500   -0.0317823800
   0.0042813000   -0.0010243700   -0.0008836900
   0.0333526500   -0.0380774500   -0.0000767900
  -0.0014687800    0.0009797700   -0.0009368900
   0.0026856000    0.0000009100   -0.0003855200
  -0.0011529600    0.0007518200   -0.0005662700
  -0.0104528200    0.0056954200   -0.0118521100
   0.0040575100   -0.0007107900   -0.0006199500
   0.0164836200    0.0212072500    0.0198304600
   0.0050568300   -0.0066036900   -0.0004643900
  -0.0014547500    0.0003381900   -0.0000621400
   0.0007551700   -0.0005545500    0.0015117800
   0.0014495500   -0.0005582300    0.0009821700
  -0.0016322800    0.0013612200    0.0003284900
   0.0002387300   -0.0009876000    0.0005902000
   0.0175645800   -0.0106375900    0.0171614700
  -0.0027990400    0.0018155900    0.0000708200
  -0.0041299700    0.0024240900    0.0033084400
   0.0020700900   -0.0022046900   -0.0014375300
  -0.0010643200    0.0002938900   -0.0006746500
   0.0006308900   -0.0006195400   -0.0005299500
   0.0010947900   -0.0003505900   -0.0008110500
  -0.0010241900    0.0008059900   -0.0008870700
   0.0002362600   -0.0007851500    0.0001448500
   0.0004464200    0.0007637300   -0.0102076900
  -0.0022524700    0.0012698400   -0.0019579500
   0.0005659500   -0.0000987100   -0.0002107700
   0.0014171700   -0.0001662900   -0.0008510600
  -0.0011795700    0.0004746600    0.0001465400
  -0.0017677000    0.0017768000   -0.0013602000
   0.0012110300   -0.0010746700   -0.0011229300
  -0.0005213900    0.0003037300   -0.0003335100
   0.0000558000   -0.0006689200   -0.0006758400
   0.0055750600   -0.0043688400   -0.0128888800
  -0.0015258900    0.0011550100    0.0000210400
  -0.0014693900    0.0005520700   -0.0020738200
   0.0049416800   -0.0042159900    0.0025625300
  -0.0014993800    0.0005090700    0.0005820200
  -0.0073339700    0.0075344700    0.0003556500
   0.0016181800   -0.0009020700    0.0008587600
  -0.0009617400    0.0006907500    0.0008841800
   0.0000707500   -0.0009445800   -0.0000672400
   0.0135502300   -0.0065074700    0.0104859500
  -0.0024545000    0.0016489500    0.0017717200
  -0.0065089200    0.0025396500   -0.0012132600
  -0.0066023300    0.0026067900   -0.0012225300
  -0.0025308000    0.0017261400    0.0017612900
   0.0137453400   -0.0066943000    0.0102149700
  -0.0000071100   -0.0008669100   -0.0000674400
  -0.0010392700    0.0007707100    0.0008822500
   0.0015381300   -0.0008267400    0.0008570300
  -0.0074254200    0.0076227800    0.0003642600
  -0.0015787600    0.0005897000    0.0005817900
   0.0048634500   -0.0041275500    0.0025582800
  -0.0015474200    0.0006265200   -0.0020810400
  -0.0016051000    0.0012320300    0.0000208600
   0.0055161000   -0.0043070200   -0.0129463400
  -0.0000200500   -0.0005944200   -0.0006786000
  -0.0006006400    0.0003840500   -0.0003363800
   0.0011309400   -0.0009976200   -0.0011245600
  -0.0018498700    0.0018587700   -0.0013639900
  -0.0012570900    0.0005530400    0.0001429000
   0.0013399600   -0.0000857800   -0.0008524100
   0.0004899200   -0.0000247600   -0.0002082400
  -0.0023265600    0.0013471700   -0.0019525600
   0.0003370100    0.0008685700   -0.0102235600
   0.0001598800   -0.0007076000    0.0001478900
  -0.0011014900    0.0008839600   -0.0008831300
   0.0010169300   -0.0002736500   -0.0008125400
   0.0005512200   -0.0005434200   -0.0005291000
  -0.0011436200    0.0003736800   -0.0006732300
   0.0019895100   -0.0021195200   -0.0014338500
  -0.0042084200    0.0024986000    0.0033255400
  -0.0028745100    0.0018928400    0.0000760100
   0.0157058400   -0.0085561400    0.0140718600
   0.0001628000   -0.0009100500    0.0005896300
  -0.0017072800    0.0014373100    0.0003285600
   0.0013692800   -0.0004783300    0.0009842500
   0.0007013500   -0.0005029100    0.0015198600
  -0.0015350400    0.0004196700   -0.0000597600
   0.0049720300   -0.0065119800   -0.0004575600
  -0.0058042400   -0.0059861400    0.0024392900
  -0.0015130900   -0.0006426800    0.0005329600
   0.0027274300    0.0050741300    0.0089309900
   0.0004300600    0.0004259800    0.0005339200
  -0.0017942700   -0.0014557000    0.0003109100
   0.0006433800    0.0000126800    0.0005304100
  -0.0028464400    0.0015594000    0.0089740100
  -0.0026629400   -0.0016061700    0.0005301600
   0.0054529200   -0.0022524300    0.0081292000
  -0.0042042400   -0.0045297800   -0.0056391000
  -0.0008907200   -0.0003639400    0.0000074800
   0.0020178100    0.0001097200    0.0002077400
   0.0004469900    0.0005943500   -0.0002213300
  -0.0012293300   -0.0009280700    0.0000688400
   0.0009814500    0.0004894800    0.0002319800
  -0.0049079300    0.0002320000   -0.0065591500
  -0.0015680100   -0.0007146600    0.0002460400
   0.0120159700    0.0086893600    0.0016781700
  -0.0004532600   -0.0008861200   -0.0027133500
  -0.0009713200   -0.0003586000   -0.0004869500
   0.0014422800    0.0010534800   -0.0031091000
   0.0002054000    0.0000236000   -0.0004856400
  -0.0009088900   -0.0006457600   -0.0003114100
   0.0004958600    0.0001369200   -0.0005672800
   0.0002176400    0.0000347400   -0.0031104200
  -0.0012647800   -0.0006523500   -0.0005629000
   0.0016560900    0.0014618200   -0.0029415100
  -0.0023502100   -0.0026738600    0.0061816300
  -0.0015779300   -0.0006263100   -0.0000613900
   0.0022585900    0.0067751300   -0.0064002400
   0.0001869500   -0.0000950700    0.0001653600
  -0.0014410500   -0.0011363800   -0.0000689300
   0.0000698000   -0.0006110300   -0.0002310400
   0.0017741400    0.0004565700    0.0003420700
  -0.0026684800   -0.0016271400   -0.0002493100
  -0.0030918700   -0.0063749000   -0.0068221200
   0.0060214800   -0.0016075500    0.0080832100
  -0.0027479000   -0.0016927500    0.0005309600
  -0.0029148400    0.0014320100    0.0089432800
   0.0005641100   -0.0000658100    0.0005292600
  -0.0018723200   -0.0015341300    0.0003099600
   0.0003519700    0.0003460000    0.0005325600
   0.0026289400    0.0050067800    0.0089849800
  -0.0015890500   -0.0007157200    0.0005339800
  -0.0058923300   -0.0060673700    0.0024287800
  -0.0031423700   -0.0064721100   -0.0068150900
  -0.0027486800   -0.0017073700   -0.0002516800
   0.0016818900    0.0003742800    0.0003597000
  -0.0000089900   -0.0006894900   -0.0002344600
  -0.0015186500   -0.0012178700   -0.0000700200
   0.0001066600   -0.0001746500    0.0001659000
   0.0021636900    0.0066959000   -0.0064026800
  -0.0016554200   -0.0007003700   -0.0000659400
  -0.0024298200   -0.0027573500    0.0061769600
   0.0015785800    0.0013863200   -0.0029441900
  -0.0013432400   -0.0007305100   -0.0005653600
   0.0001415200   -0.0000448600   -0.0031092200
   0.0004188000    0.0000586800   -0.0005651000
  -0.0009847100   -0.0007221000   -0.0003100800
   0.0001282000   -0.0000540200   -0.0004882200
   0.0013627400    0.0009793200   -0.0031119600
  -0.0010448800   -0.0004325600   -0.0004847200
  -0.0005270600   -0.0009615600   -0.0027120500
   0.0119090900    0.0086232600    0.0016880700
  -0.0016464300   -0.0007950400    0.0002500200
  -0.0049733000    0.0001295700   -0.0065443000
   0.0009044400    0.0004127500    0.0002340100
  -0.0013081000   -0.0010030800    0.0000692300
   0.0003691500    0.0005143000   -0.0002180900
   0.0019362400    0.0000252900    0.0001965300
  -0.0009651500   -0.0004401100    0.0000088300
  -0.0042782600   -0.0046053700   -0.0056276600

73   
  0.0076227163122677   0.0000000000000000   0.0064725725969423
   0.0036616100    0.0005743800    0.0011036000
  -0.0028307800    0.0030343900    0.0057079900
  -0.0017875200   -0.0012027000    0.0002821400
   0.0166378900   -0.0093577500    0.0133231300
  -0.0034291000   -0.0040803000    0.0024476900
  -0.0033749500   -0.0007436900    0.0007056700
   0.0015408900    0.0024849100    0.0008150500
   0.0003955100    0.0007373300    0.0003606700
  -0.0015687500    0.0012969100    0.0002098800
   0.0062493000    0.0044383800    0.0009880600
  -0.0038173300    0.0040200400   -0.0038289800
  -0.0012473600   -0.0006501900    0.0002390500
   0.0127950900   -0.0057642600    0.0113206000
  -0.0072932300   -0.0066676500   -0.0003510200
  -0.0019511300   -0.0006362800    0.0011166000
   0.0014391900    0.0010556500    0.0010153700
  -0.0001616800    0.0001939800    0.0001626600
  -0.0011002700    0.0008292100    0.0009957800
   0.0019529400    0.0010575200   -0.0015197500
  -0.0009606100    0.0009731100   -0.0023585500
  -0.0008176700   -0.0003429500   -0.0003304200
   0.0018423900   -0.0006375500   -0.0084675900
  -0.0012787300   -0.0013945900   -0.0023396300
  -0.0010989200   -0.0005431800   -0.0005290300
   0.0009837700    0.0004194700   -0.0008912100
  -0.0002385700    0.0000790700   -0.0003725400
  -0.0005811200    0.0003615300   -0.0003098000
   0.0014531100   -0.0005250300   -0.0007625000
  -0.0002542900    0.0002667800    0.0004629900
  -0.0015048800   -0.0010343700   -0.0001995700
   0.0040955600   -0.0028952100   -0.0145244100
   0.0003014400   -0.0008968200    0.0000529100
  -0.0027572900   -0.0008062700   -0.0013872500
   0.0012430500    0.0020853000   -0.0010341500
   0.0004570400    0.0007701400   -0.0001597700
  -0.0010427400    0.0008251000   -0.0009041500
   0.0061158100    0.0014571000    0.0079825800
  -0.0027047800    0.0000244000    0.0005287700
  -0.0029026600   -0.0050385600    0.0088707600
   0.0026896700   -0.0014710800    0.0089105100
  -0.0015520300   -0.0003859900    0.0005313100
  -0.0058351300    0.0060134900    0.0024141300
   0.0006065800    0.0016484200    0.0005281400
  -0.0018326500    0.0014941500    0.0003096900
   0.0003884900    0.0006798000    0.0005301800
   0.0008425000    0.0024893700   -0.0114471100
  -0.0023730300    0.0002978800   -0.0006483400
   0.0012981100   -0.0006248100    0.0008613200
  -0.0006871400   -0.0032120900   -0.0029347700
  -0.0013035900   -0.0003730300   -0.0004348800
   0.0016596600   -0.0013344300    0.0013555300
   0.0002920500    0.0014217500   -0.0005378400
  -0.0014355000    0.0011325400   -0.0001257200
   0.0004386600    0.0005649800   -0.0001821000
   0.0016152200   -0.0014227000   -0.0029343100
  -0.0013029800   -0.0000981100   -0.0005650500
   0.0001803800   -0.0010159700   -0.0030818100
   0.0014021200    0.0000024100   -0.0030947300
  -0.0010071800    0.0000165700   -0.0004835100
  -0.0004905300    0.0009208300   -0.0026858300
   0.0004567000    0.0006909300   -0.0005632000
  -0.0009460100    0.0006861600   -0.0003078100
   0.0001645700    0.0003978400   -0.0004831300
   0.0080138700   -0.0046920700    0.0062814500
  -0.0019430500   -0.0001003300    0.0006479000
  -0.0045142400   -0.0061755800   -0.0069971300
   0.0048867900    0.0026257400   -0.0032365100
  -0.0012383700   -0.0000453000    0.0003789900
  -0.0082865300    0.0086090800   -0.0008174600
   0.0006877300    0.0009942800    0.0005360400
  -0.0013131100    0.0010110300    0.0001226900
   0.0001110500    0.0005003200    0.0001270100
  -0.0896075600    0.0496707900   -0.0731056800
   0.0014028900   -0.0001413400   -0.0009259800
   0.0014037900   -0.0006026900   -0.0009109000
  -0.0004441900   -0.0001441800   -0.0009143800
   0.0001387900   -0.0000797300   -0.0002327400
   0.0022370100   -0.0022872600   -0.0004111400
  -0.0004496200   -0.0005994800   -0.0009227100
   0.0022441200   -0.0022951500   -0.0004158200
   0.0001443300    0.0000763900   -0.0002342400
  -0.0020985700    0.0011716300    0.0066684000
   0.0016071100   -0.0001525400    0.0015845700
   0.0001239900    0.0000990700   -0.0001843500
  -0.0009094900    0.0010319000    0.0001724900
   0.0001613400   -0.0000754100    0.0000532100
   0.0003909500   -0.0003512300   -0.0001849600
  -0.0003476200   -0.0007620700    0.0008428800
   0.0015523300   -0.0015123300    0.0011897100
   0.0000948100    0.0000542800   -0.0000236700
  -0.0018876600    0.0017672200    0.0043557900
   0.0004440700   -0.0001371000    0.0006368900
   0.0004466800   -0.0000615000    0.0006288200
  -0.0002631400   -0.0001393100    0.0006310600
   0.0001567800   -0.0001644200    0.0002475300
   0.0006703500   -0.0006774000    0.0003866900
  -0.0002656700   -0.0000621500    0.0006356000
   0.0006736900   -0.0006814200    0.0003887000
   0.0001581000    0.0000501300    0.0002442100
  -0.0071424100    0.0062394100    0.0125969500
   0.0008973600   -0.0000502300   -0.0011092100
   0.0023822200   -0.0009206200    0.0006484200
   0.0001205300   -0.0012417700    0.0002945800
   0.0001337600   -0.0001790500   -0.0000747200
   0.0022841500   -0.0022445300    0.0003098200
  -0.0004495800   -0.0000540000   -0.0003701300
   0.0011271400   -0.0010864600   -0.0010596100
   0.0002016200    0.0000784800    0.0000072000
   0.0120834500   -0.0113729200    0.0004765100
   0.0008404700   -0.0003761900   -0.0002394700
  -0.0022314300    0.0022333600   -0.0012659300
  -0.0002562200    0.0022293900   -0.0012666800
   0.0009654200   -0.0004270600   -0.0004966200
   0.0159437800   -0.0196473100   -0.0132258100
   0.0001667700   -0.0003777300   -0.0002390300
   0.0009793500   -0.0009201500   -0.0002478200
  -0.0000457000   -0.0004226200   -0.0004948500
   0.0021305900   -0.0024361800    0.0017028500
   0.0007359300   -0.0003801900    0.0000157400
  -0.0015274100    0.0004884400    0.0007026300
   0.0002234600    0.0011073000    0.0014364500
   0.0007345200   -0.0002947800   -0.0001653800
  -0.0011740000    0.0025554700    0.0066602600
   0.0001913200   -0.0003294200    0.0000742700
   0.0006329300   -0.0005870300   -0.0000962800
  -0.0001187100   -0.0002541700   -0.0001136100
  -0.0001290700    0.0001261100    0.0005220400
   0.0005671100   -0.0002089900    0.0002727300
  -0.0010391600    0.0008357200    0.0007129000
  -0.0006933900    0.0008375500    0.0007135100
   0.0007696200   -0.0002935700    0.0006103200
  -0.0001136500   -0.0000884100    0.0049046000
   0.0000683100   -0.0002073200    0.0002783300
   0.0005037800   -0.0004577300    0.0002657900
  -0.0000625500   -0.0002932500    0.0006090900
  -0.0005141500    0.0002110000   -0.0014143800
   0.0007003400   -0.0002456900   -0.0000217800
  -0.0021212200    0.0023204300   -0.0000089000
  -0.0016158600    0.0017067500   -0.0007418100
   0.0009511000   -0.0004281000    0.0000936400
   0.0129132700   -0.0115710100    0.0234309300
   0.0000577700   -0.0002959200   -0.0000859100
   0.0007933500   -0.0007477200    0.0000934800
   0.0000128900   -0.0004686900    0.0000418200
   0.0056313200    0.0012585600   -0.0114258300
   0.0014531200    0.0010244300   -0.0003371700
   0.0210635600    0.0120974600    0.0069107600
  -0.0011241100   -0.0008024400   -0.0011572300
   0.0007552200    0.0004545600   -0.0001999700
  -0.0005744900   -0.0021002000   -0.0005101400
  -0.0007742900   -0.0011588600   -0.0004851400
   0.0006955200    0.0003369000   -0.0001820800
  -0.0005475700   -0.0004025500   -0.0002192600
   0.0152522000   -0.0012336300    0.0142994100
   0.0012285800    0.0008264100   -0.0000764800
  -0.0003877800   -0.0003121900   -0.0042236100
  -0.0000247000    0.0002621500   -0.0011744600
   0.0006685800    0.0004435000   -0.0000987000
  -0.0005684000   -0.0010265600   -0.0018123900
  -0.0008492600   -0.0014327200    0.0001247100
   0.0005657000    0.0001937300   -0.0000370900
  -0.0010691000   -0.0010208800   -0.0001381400
   0.0007287800    0.0009398300    0.0028157300
   0.0009636600    0.0006411500    0.0004217400
  -0.0009610800   -0.0005388700    0.0008048500
  -0.0000111700    0.0004183800    0.0013469700
   0.0004888200    0.0003014900    0.0002078400
  -0.0005435700   -0.0002828100    0.0007080900
  -0.0004122400   -0.0006557400    0.0004014600
   0.0004550300    0.0001540300    0.0001849800
  -0.0005482300   -0.0005293400    0.0002358000
  -0.0005019100    0.0006342900    0.0002735500
   0.0013000400    0.0008880800    0.0000279300
   0.0011890300    0.0019177200    0.0022656600
  -0.0009679900   -0.0008331700    0.0012252600
   0.0005908800    0.0003188500    0.0000918700
  -0.0004321600   -0.0017724000    0.0018546000
  -0.0003394600   -0.0004148700   -0.0000095000
   0.0005715900    0.0002792100    0.0000402600
  -0.0001960700   -0.0000873300    0.0001533400
  -0.0053348100   -0.0011414100   -0.0059769600
   0.0013289800    0.0006745000   -0.0005397400
   0.0018304400    0.0021119000   -0.0005202500
  -0.0103112700   -0.0108702200   -0.0000273200
   0.0011572500    0.0010342400   -0.0003381500
   0.0018348600    0.0002697600   -0.0005314100
  -0.0009066000   -0.0010345600   -0.0003214700
   0.0000183900   -0.0003289500   -0.0001891400
  -0.0002924300   -0.0004926900   -0.0001550400
  -0.0028811900   -0.0106871400    0.0087981100
   0.0016033300    0.0007503600    0.0001812100
   0.0007711500    0.0010182100   -0.0018019400
   0.0021507900    0.0108230400    0.0028209600
   0.0017779300    0.0015565200   -0.0000202300
   0.0007594300    0.0002631900   -0.0017928400
  -0.0007094000   -0.0008116100   -0.0000908500
   0.0001601000   -0.0002006700   -0.0000289300
  -0.0002814200   -0.0004049100   -0.0001440000
  -0.0014411900   -0.0013099900    0.0030007200
   0.0007444200    0.0003457200    0.0004521200
   0.0003744900    0.0005479100    0.0003936800
  -0.0000549500    0.0002901100    0.0013560500
   0.0008464800    0.0007095700    0.0003354000
   0.0002551300    0.0002629900    0.0005348700
  -0.0005373400   -0.0005959300    0.0003693400
   0.0001294600   -0.0001562300    0.0001883200
  -0.0001850600   -0.0002591300    0.0001577000
  -0.0011368300   -0.0000790000    0.0000899900
   0.0005033500    0.0002720100   -0.0000617800
   0.0016222500    0.0015071400    0.0021638400
  -0.0025121000   -0.0018587700    0.0017204100
   0.0004059000    0.0003605300    0.0000545100
   0.0017410300    0.0001512300    0.0020255900
  -0.0007835200   -0.0009315300    0.0000792000
  -0.0000020600   -0.0002794200    0.0000358200
  -0.0002018200   -0.0003616100    0.0001423800

73   
 -0.0076227163122677   0.0000000000000000  -0.0064725725969423
  -0.0036907400   -0.0006115300   -0.0011247900
   0.0028364000   -0.0030330100   -0.0057116600
   0.0017918300    0.0012096700   -0.0002879800
  -0.0180940700    0.0113005900   -0.0161602400
   0.0034471200    0.0040849600   -0.0024571600
   0.0033912800    0.0007472100   -0.0007232800
  -0.0015537800   -0.0024976100   -0.0008249000
  -0.0003934700   -0.0007370000   -0.0003600100
   0.0015753400   -0.0013064700   -0.0002150500
  -0.0062321500   -0.0044506200   -0.0009793100
   0.0038154700   -0.0040125400    0.0038371100
   0.0012404000    0.0006456900   -0.0002372000
  -0.0130303200    0.0059674900   -0.0111164400
   0.0072841600    0.0066290000    0.0003587600
   0.0019398000    0.0006406900   -0.0011322400
  -0.0014443100   -0.0010483600   -0.0010230300
   0.0001676000   -0.0001882900   -0.0001644200
   0.0010981100   -0.0008291600   -0.0010083100
  -0.0019480700   -0.0010597500    0.0015303000
   0.0009622600   -0.0009700000    0.0023578800
   0.0008080600    0.0003363900    0.0003337300
  -0.0018016800    0.0005935800    0.0085952400
   0.0012873800    0.0013887000    0.0023415700
   0.0010811800    0.0005406000    0.0005494600
  -0.0009809500   -0.0004067100    0.0009039600
   0.0002452700   -0.0000728700    0.0003712000
   0.0005760300   -0.0003590600    0.0003188400
  -0.0014578300    0.0005338200    0.0007614200
   0.0002562600   -0.0002633600   -0.0004670300
   0.0015117800    0.0010430900    0.0002000900
  -0.0041355900    0.0029225800    0.0146869800
  -0.0003046600    0.0008948300   -0.0000551000
   0.0027752300    0.0008094300    0.0014017600
  -0.0012516800   -0.0020965600    0.0010388400
  -0.0004569800   -0.0007716700    0.0001617300
   0.0010471900   -0.0008306800    0.0009123700
  -0.0053523500   -0.0024084900   -0.0082191100
   0.0027055900   -0.0000256900   -0.0005276400
   0.0028569000    0.0050416200   -0.0090431000
  -0.0026701900    0.0015145300   -0.0090026900
   0.0015543400    0.0003851600   -0.0005310100
   0.0058640700   -0.0060420200   -0.0024526700
  -0.0006032300   -0.0016511900   -0.0005272700
   0.0018339100   -0.0014937800   -0.0003121800
  -0.0003928700   -0.0006817500   -0.0005312000
  -0.0007847200   -0.0024972600    0.0114542700
   0.0023652300   -0.0002952800    0.0006493500
  -0.0013529200    0.0005705200   -0.0007894000
   0.0007322600    0.0032447600    0.0029877900
   0.0013030700    0.0003721000    0.0004337100
  -0.0017403200    0.0014140600   -0.0013669400
  -0.0002885300   -0.0014200400    0.0005377400
   0.0014331800   -0.0011295400    0.0001265500
  -0.0004420700   -0.0005644000    0.0001831800
  -0.0016201900    0.0014259000    0.0029441000
   0.0013036500    0.0000973100    0.0005651000
  -0.0001786000    0.0010203100    0.0031342700
  -0.0014051200   -0.0000080100    0.0031256400
   0.0010090700   -0.0000169700    0.0004852000
   0.0004899600   -0.0009263500    0.0027318400
  -0.0004556200   -0.0006903300    0.0005637500
   0.0009468900   -0.0006841400    0.0003108100
  -0.0001677100   -0.0003962600    0.0004849500
  -0.0080534100    0.0047608500   -0.0063499200
   0.0019481500    0.0001000900   -0.0006507900
   0.0045622500    0.0062353700    0.0070557500
  -0.0049114700   -0.0026428400    0.0032381500
   0.0012435900    0.0000440600   -0.0003803400
   0.0083783700   -0.0087070100    0.0008192800
  -0.0006843900   -0.0010011800   -0.0005383400
   0.0013169200   -0.0010121600   -0.0001245200
  -0.0001148900   -0.0005030500   -0.0001293800
   0.0907987400   -0.0510042400    0.0761708300
  -0.0013251700    0.0000624400    0.0009137500
  -0.0013228900    0.0005222900    0.0009257700
   0.0005294700    0.0000591100    0.0009231100
  -0.0000651000    0.0000031300    0.0002330200
  -0.0021705300    0.0022221300    0.0004166700
   0.0005259900    0.0005246800    0.0009154100
  -0.0021645500    0.0022147600    0.0004122900
  -0.0000623400   -0.0001582900    0.0002339900
   0.0021365400   -0.0012323300   -0.0066441800
  -0.0015228200    0.0000748900   -0.0015730500
  -0.0000204400   -0.0001892700    0.0001768000
   0.0009941800   -0.0011241500   -0.0001769900
  -0.0000842200   -0.0000035300   -0.0000528300
  -0.0002988900    0.0002585100    0.0001834000
   0.0004239000    0.0006842200   -0.0008415200
  -0.0014704700    0.0014299700   -0.0011871000
  -0.0000180300   -0.0001308600    0.0000244100
   0.0019701900   -0.0018499400   -0.0044097900
  -0.0003716800    0.0000641600   -0.0006334900
  -0.0003704200   -0.0000151500   -0.0006387400
   0.0003435100    0.0000624100   -0.0006374500
  -0.0000826100    0.0000887300   -0.0002465500
  -0.0005977100    0.0006047400   -0.0003900500
   0.0003420000   -0.0000157900   -0.0006345300
  -0.0005973700    0.0006034600   -0.0003870200
  -0.0000825100   -0.0001252800   -0.0002470600
   0.0073236600   -0.0063956700   -0.0127668300
  -0.0008249100   -0.0000243400    0.0011109300
  -0.0023260800    0.0008530900   -0.0006498100
  -0.0000391300    0.0011671300   -0.0002931300
  -0.0000597000    0.0001024100    0.0000728800
  -0.0022265700    0.0021859400   -0.0003128400
   0.0005254700   -0.0000164300    0.0003780000
  -0.0010516300    0.0010116600    0.0010616900
  -0.0001236400   -0.0001565000   -0.0000046600
  -0.0121432400    0.0114580400   -0.0004392300
  -0.0009218200    0.0004561700    0.0002397300
   0.0021566700   -0.0021408100    0.0012658600
   0.0001623400   -0.0021449800    0.0012638600
  -0.0010424500    0.0005035900    0.0004997800
  -0.0161431100    0.0199444200    0.0134915400
  -0.0002475000    0.0004561700    0.0002387800
  -0.0010617000    0.0010028500    0.0002491400
  -0.0000351500    0.0005049500    0.0005000400
  -0.0022105200    0.0025081000   -0.0017001600
  -0.0008105400    0.0004556500   -0.0000148500
   0.0014367100   -0.0003917700   -0.0007075400
  -0.0003175000   -0.0010160400   -0.0014360200
  -0.0008121000    0.0003739700    0.0001641800
   0.0012416800   -0.0026137000   -0.0069012800
  -0.0002707400    0.0004064300   -0.0000739800
  -0.0007096100    0.0006641000    0.0000963600
   0.0000428600    0.0003303300    0.0001139100
   0.0000553900   -0.0000533900   -0.0005223000
  -0.0006415500    0.0002834800   -0.0002781700
   0.0009639300   -0.0007607200   -0.0007142300
   0.0006159500   -0.0007590800   -0.0007123500
  -0.0008465800    0.0003701400   -0.0006157700
   0.0000330800    0.0001689900   -0.0049608500
  -0.0001486200    0.0002846600   -0.0002769000
  -0.0005815500    0.0005347400   -0.0002673500
  -0.0000115600    0.0003696700   -0.0006150100
   0.0004393300   -0.0001395400    0.0014178100
  -0.0007788100    0.0003226700    0.0000249400
   0.0020603600   -0.0022609200    0.0000154000
   0.0015433900   -0.0016329700    0.0007448000
  -0.0010319100    0.0005062700   -0.0000914200
  -0.0132075700    0.0117957000   -0.0237398200
  -0.0001381500    0.0003738000    0.0000841600
  -0.0008737600    0.0008280000   -0.0000936200
  -0.0000904100    0.0005509100   -0.0000416900
  -0.0055804900   -0.0011490300    0.0114120600
  -0.0013750200   -0.0009466800    0.0003397200
  -0.0213764400   -0.0122199900   -0.0070252400
   0.0012063300    0.0008860500    0.0011756400
  -0.0006797700   -0.0003780000    0.0002011700
   0.0006586100    0.0021943300    0.0005294100
   0.0008513200    0.0012381400    0.0004848100
  -0.0006183100   -0.0002587700    0.0001857300
   0.0006324000    0.0004885700    0.0002227500
  -0.0149210400    0.0012842400   -0.0140819900
  -0.0011484200   -0.0007461500    0.0000734900
   0.0006636700    0.0004943300    0.0041725600
   0.0000927100   -0.0001943700    0.0011806400
  -0.0005904300   -0.0003667600    0.0000985000
   0.0006490500    0.0011019500    0.0018364300
   0.0009222200    0.0015063300   -0.0001266300
  -0.0004892900   -0.0001162900    0.0000344400
   0.0011486000    0.0011003500    0.0001372700
  -0.0006583500   -0.0008612800   -0.0028223200
  -0.0008813400   -0.0005595700   -0.0004254800
   0.0010473100    0.0006282400   -0.0008327400
   0.0000804800   -0.0003485500   -0.0013656900
  -0.0004105700   -0.0002233700   -0.0002109100
   0.0006238700    0.0003493300   -0.0007339700
   0.0004876000    0.0007305600   -0.0004004700
  -0.0003746800   -0.0000738200   -0.0001834200
   0.0006278300    0.0006100700   -0.0002388200
   0.0005848500   -0.0005564800   -0.0002767700
  -0.0012244500   -0.0008111300   -0.0000240400
  -0.0011247100   -0.0018634100   -0.0022884300
   0.0010529800    0.0009171200   -0.0012299300
  -0.0005147400   -0.0002394800   -0.0000900400
   0.0005146100    0.0018638600   -0.0018714400
   0.0004159300    0.0004917100    0.0000109300
  -0.0004973100   -0.0002049300   -0.0000431100
   0.0002799900    0.0001707300   -0.0001526400
   0.0052100200    0.0011331200    0.0060450300
  -0.0014112000   -0.0007575400    0.0005421200
  -0.0019195900   -0.0022042600    0.0005467200
   0.0103332600    0.0108192700    0.0001018500
  -0.0012397500   -0.0011151500    0.0003381400
  -0.0019270500   -0.0003541300    0.0005488600
   0.0008317000    0.0009614100    0.0003239400
  -0.0000971200    0.0002514700    0.0001935900