phonopy:
  version: 2.9.3
  frequency_unit_conversion_factor: 15.633302
  symmetry_tolerance: 1.00000e-05
  nac_unit_conversion_factor: 14.399652
  configuration:
    dim: "3 3 4"
    band: "AUTO"
    eigenvectors: ".TRUE."
    nac: ".true."

physical_unit:
  atomic_mass: "AMU"
  length: "angstrom"
  force_constants: "eV/angstrom^2"

space_group:
  type: "P4_2/mnm"
  number: 136
  Hall_symbol: "-P 4n 2n"

primitive_matrix:
- [  1.000000000000000,  0.000000000000000,  0.000000000000000 ]
- [  0.000000000000000,  1.000000000000000,  0.000000000000000 ]
- [  0.000000000000000,  0.000000000000000,  1.000000000000000 ]

supercell_matrix:
- [   3,   0,   0 ]
- [   0,   3,   0 ]
- [   0,   0,   4 ]

primitive_cell:
  lattice:
  - [     4.661789855666146,     0.000000000000000,     0.000000000000000 ] # a
  - [     0.000000000000000,     4.661789855666146,     0.000000000000000 ] # b
  - [     0.000000000000000,     0.000000000000000,     2.968801281236969 ] # c
  points:
  - symbol: Ti # 1
    coordinates: [  0.000000000000000,  0.000000000000000,  0.000000000000000 ]
    mass: 47.867000
  - symbol: Ti # 2
    coordinates: [  0.500000000000000,  0.500000000000000,  0.500000000000000 ]
    mass: 47.867000
  - symbol: O  # 3
    coordinates: [  0.195324601386218,  0.804675398613782,  0.500000000000000 ]
    mass: 15.999400
  - symbol: O  # 4
    coordinates: [  0.804675398613782,  0.195324601386218,  0.500000000000000 ]
    mass: 15.999400
  - symbol: O  # 5
    coordinates: [  0.695324601386211,  0.695324601386211,  0.000000000000000 ]
    mass: 15.999400
  - symbol: O  # 6
    coordinates: [  0.304675398613789,  0.304675398613789,  0.000000000000000 ]
    mass: 15.999400
  reciprocal_lattice: # without 2pi
  - [     0.214509883748740,     0.000000000000000,     0.000000000000000 ] # a*
  - [     0.000000000000000,     0.214509883748740,     0.000000000000000 ] # b*
  - [     0.000000000000000,     0.000000000000000,     0.336836286860987 ] # c*

unit_cell:
  lattice:
  - [     4.661789855666147,     0.000000000000000,     0.000000000000000 ] # a
  - [     0.000000000000000,     4.661789855666147,     0.000000000000000 ] # b
  - [     0.000000000000000,     0.000000000000000,     2.968801281236969 ] # c
  points:
  - symbol: Ti # 1
    coordinates: [  0.000000000000000,  0.000000000000000,  0.000000000000000 ]
    mass: 47.867000
    reduced_to: 1
  - symbol: Ti # 2
    coordinates: [  0.500000000000000,  0.500000000000000,  0.500000000000000 ]
    mass: 47.867000
    reduced_to: 2
  - symbol: O  # 3
    coordinates: [  0.195324601386218,  0.804675398613782,  0.500000000000000 ]
    mass: 15.999400
    reduced_to: 3
  - symbol: O  # 4
    coordinates: [  0.804675398613782,  0.195324601386218,  0.500000000000000 ]
    mass: 15.999400
    reduced_to: 4
  - symbol: O  # 5
    coordinates: [  0.695324601386211,  0.695324601386211,  0.000000000000000 ]
    mass: 15.999400
    reduced_to: 5
  - symbol: O  # 6
    coordinates: [  0.304675398613789,  0.304675398613789,  0.000000000000000 ]
    mass: 15.999400
    reduced_to: 6

supercell:
  lattice:
  - [    13.985369566998440,     0.000000000000000,     0.000000000000000 ] # a
  - [     0.000000000000000,    13.985369566998440,     0.000000000000000 ] # b
  - [     0.000000000000000,     0.000000000000000,    11.875205124947875 ] # c
  points:
  - symbol: Ti # 1
    coordinates: [  0.000000000000000,  0.000000000000000,  0.000000000000000 ]
    mass: 47.867000
    reduced_to: 1
  - symbol: Ti # 2
    coordinates: [  0.333333333333333,  0.000000000000000,  0.000000000000000 ]
    mass: 47.867000
    reduced_to: 1
  - symbol: Ti # 3
    coordinates: [  0.666666666666667,  0.000000000000000,  0.000000000000000 ]
    mass: 47.867000
    reduced_to: 1
  - symbol: Ti # 4
    coordinates: [  0.000000000000000,  0.333333333333333,  0.000000000000000 ]
    mass: 47.867000
    reduced_to: 1
  - symbol: Ti # 5
    coordinates: [  0.333333333333333,  0.333333333333333,  0.000000000000000 ]
    mass: 47.867000
    reduced_to: 1
  - symbol: Ti # 6
    coordinates: [  0.666666666666667,  0.333333333333333,  0.000000000000000 ]
    mass: 47.867000
    reduced_to: 1
  - symbol: Ti # 7
    coordinates: [  0.000000000000000,  0.666666666666667,  0.000000000000000 ]
    mass: 47.867000
    reduced_to: 1
  - symbol: Ti # 8
    coordinates: [  0.333333333333333,  0.666666666666667,  0.000000000000000 ]
    mass: 47.867000
    reduced_to: 1
  - symbol: Ti # 9
    coordinates: [  0.666666666666667,  0.666666666666667,  0.000000000000000 ]
    mass: 47.867000
    reduced_to: 1
  - symbol: Ti # 10
    coordinates: [  0.000000000000000,  0.000000000000000,  0.250000000000000 ]
    mass: 47.867000
    reduced_to: 1
  - symbol: Ti # 11
    coordinates: [  0.333333333333333,  0.000000000000000,  0.250000000000000 ]
    mass: 47.867000
    reduced_to: 1
  - symbol: Ti # 12
    coordinates: [  0.666666666666667,  0.000000000000000,  0.250000000000000 ]
    mass: 47.867000
    reduced_to: 1
  - symbol: Ti # 13
    coordinates: [  0.000000000000000,  0.333333333333333,  0.250000000000000 ]
    mass: 47.867000
    reduced_to: 1
  - symbol: Ti # 14
    coordinates: [  0.333333333333333,  0.333333333333333,  0.250000000000000 ]
    mass: 47.867000
    reduced_to: 1
  - symbol: Ti # 15
    coordinates: [  0.666666666666667,  0.333333333333333,  0.250000000000000 ]
    mass: 47.867000
    reduced_to: 1
  - symbol: Ti # 16
    coordinates: [  0.000000000000000,  0.666666666666667,  0.250000000000000 ]
    mass: 47.867000
    reduced_to: 1
  - symbol: Ti # 17
    coordinates: [  0.333333333333333,  0.666666666666667,  0.250000000000000 ]
    mass: 47.867000
    reduced_to: 1
  - symbol: Ti # 18
    coordinates: [  0.666666666666667,  0.666666666666667,  0.250000000000000 ]
    mass: 47.867000
    reduced_to: 1
  - symbol: Ti # 19
    coordinates: [  0.000000000000000,  0.000000000000000,  0.500000000000000 ]
    mass: 47.867000
    reduced_to: 1
  - symbol: Ti # 20
    coordinates: [  0.333333333333333,  0.000000000000000,  0.500000000000000 ]
    mass: 47.867000
    reduced_to: 1
  - symbol: Ti # 21
    coordinates: [  0.666666666666667,  0.000000000000000,  0.500000000000000 ]
    mass: 47.867000
    reduced_to: 1
  - symbol: Ti # 22
    coordinates: [  0.000000000000000,  0.333333333333333,  0.500000000000000 ]
    mass: 47.867000
    reduced_to: 1
  - symbol: Ti # 23
    coordinates: [  0.333333333333333,  0.333333333333333,  0.500000000000000 ]
    mass: 47.867000
    reduced_to: 1
  - symbol: Ti # 24
    coordinates: [  0.666666666666667,  0.333333333333333,  0.500000000000000 ]
    mass: 47.867000
    reduced_to: 1
  - symbol: Ti # 25
    coordinates: [  0.000000000000000,  0.666666666666667,  0.500000000000000 ]
    mass: 47.867000
    reduced_to: 1
  - symbol: Ti # 26
    coordinates: [  0.333333333333333,  0.666666666666667,  0.500000000000000 ]
    mass: 47.867000
    reduced_to: 1
  - symbol: Ti # 27
    coordinates: [  0.666666666666667,  0.666666666666667,  0.500000000000000 ]
    mass: 47.867000
    reduced_to: 1
  - symbol: Ti # 28
    coordinates: [  0.000000000000000,  0.000000000000000,  0.750000000000000 ]
    mass: 47.867000
    reduced_to: 1
  - symbol: Ti # 29
    coordinates: [  0.333333333333333,  0.000000000000000,  0.750000000000000 ]
    mass: 47.867000
    reduced_to: 1
  - symbol: Ti # 30
    coordinates: [  0.666666666666667,  0.000000000000000,  0.750000000000000 ]
    mass: 47.867000
    reduced_to: 1
  - symbol: Ti # 31
    coordinates: [  0.000000000000000,  0.333333333333333,  0.750000000000000 ]
    mass: 47.867000
    reduced_to: 1
  - symbol: Ti # 32
    coordinates: [  0.333333333333333,  0.333333333333333,  0.750000000000000 ]
    mass: 47.867000
    reduced_to: 1
  - symbol: Ti # 33
    coordinates: [  0.666666666666667,  0.333333333333333,  0.750000000000000 ]
    mass: 47.867000
    reduced_to: 1
  - symbol: Ti # 34
    coordinates: [  0.000000000000000,  0.666666666666667,  0.750000000000000 ]
    mass: 47.867000
    reduced_to: 1
  - symbol: Ti # 35
    coordinates: [  0.333333333333333,  0.666666666666667,  0.750000000000000 ]
    mass: 47.867000
    reduced_to: 1
  - symbol: Ti # 36
    coordinates: [  0.666666666666667,  0.666666666666667,  0.750000000000000 ]
    mass: 47.867000
    reduced_to: 1
  - symbol: Ti # 37
    coordinates: [  0.166666666666667,  0.166666666666667,  0.125000000000000 ]
    mass: 47.867000
    reduced_to: 37
  - symbol: Ti # 38
    coordinates: [  0.500000000000000,  0.166666666666667,  0.125000000000000 ]
    mass: 47.867000
    reduced_to: 37
  - symbol: Ti # 39
    coordinates: [  0.833333333333333,  0.166666666666667,  0.125000000000000 ]
    mass: 47.867000
    reduced_to: 37
  - symbol: Ti # 40
    coordinates: [  0.166666666666667,  0.500000000000000,  0.125000000000000 ]
    mass: 47.867000
    reduced_to: 37
  - symbol: Ti # 41
    coordinates: [  0.500000000000000,  0.500000000000000,  0.125000000000000 ]
    mass: 47.867000
    reduced_to: 37
  - symbol: Ti # 42
    coordinates: [  0.833333333333333,  0.500000000000000,  0.125000000000000 ]
    mass: 47.867000
    reduced_to: 37
  - symbol: Ti # 43
    coordinates: [  0.166666666666667,  0.833333333333333,  0.125000000000000 ]
    mass: 47.867000
    reduced_to: 37
  - symbol: Ti # 44
    coordinates: [  0.500000000000000,  0.833333333333333,  0.125000000000000 ]
    mass: 47.867000
    reduced_to: 37
  - symbol: Ti # 45
    coordinates: [  0.833333333333333,  0.833333333333333,  0.125000000000000 ]
    mass: 47.867000
    reduced_to: 37
  - symbol: Ti # 46
    coordinates: [  0.166666666666667,  0.166666666666667,  0.375000000000000 ]
    mass: 47.867000
    reduced_to: 37
  - symbol: Ti # 47
    coordinates: [  0.500000000000000,  0.166666666666667,  0.375000000000000 ]
    mass: 47.867000
    reduced_to: 37
  - symbol: Ti # 48
    coordinates: [  0.833333333333333,  0.166666666666667,  0.375000000000000 ]
    mass: 47.867000
    reduced_to: 37
  - symbol: Ti # 49
    coordinates: [  0.166666666666667,  0.500000000000000,  0.375000000000000 ]
    mass: 47.867000
    reduced_to: 37
  - symbol: Ti # 50
    coordinates: [  0.500000000000000,  0.500000000000000,  0.375000000000000 ]
    mass: 47.867000
    reduced_to: 37
  - symbol: Ti # 51
    coordinates: [  0.833333333333333,  0.500000000000000,  0.375000000000000 ]
    mass: 47.867000
    reduced_to: 37
  - symbol: Ti # 52
    coordinates: [  0.166666666666667,  0.833333333333333,  0.375000000000000 ]
    mass: 47.867000
    reduced_to: 37
  - symbol: Ti # 53
    coordinates: [  0.500000000000000,  0.833333333333333,  0.375000000000000 ]
    mass: 47.867000
    reduced_to: 37
  - symbol: Ti # 54
    coordinates: [  0.833333333333333,  0.833333333333333,  0.375000000000000 ]
    mass: 47.867000
    reduced_to: 37
  - symbol: Ti # 55
    coordinates: [  0.166666666666667,  0.166666666666667,  0.625000000000000 ]
    mass: 47.867000
    reduced_to: 37
  - symbol: Ti # 56
    coordinates: [  0.500000000000000,  0.166666666666667,  0.625000000000000 ]
    mass: 47.867000
    reduced_to: 37
  - symbol: Ti # 57
    coordinates: [  0.833333333333333,  0.166666666666667,  0.625000000000000 ]
    mass: 47.867000
    reduced_to: 37
  - symbol: Ti # 58
    coordinates: [  0.166666666666667,  0.500000000000000,  0.625000000000000 ]
    mass: 47.867000
    reduced_to: 37
  - symbol: Ti # 59
    coordinates: [  0.500000000000000,  0.500000000000000,  0.625000000000000 ]
    mass: 47.867000
    reduced_to: 37
  - symbol: Ti # 60
    coordinates: [  0.833333333333333,  0.500000000000000,  0.625000000000000 ]
    mass: 47.867000
    reduced_to: 37
  - symbol: Ti # 61
    coordinates: [  0.166666666666667,  0.833333333333333,  0.625000000000000 ]
    mass: 47.867000
    reduced_to: 37
  - symbol: Ti # 62
    coordinates: [  0.500000000000000,  0.833333333333333,  0.625000000000000 ]
    mass: 47.867000
    reduced_to: 37
  - symbol: Ti # 63
    coordinates: [  0.833333333333333,  0.833333333333333,  0.625000000000000 ]
    mass: 47.867000
    reduced_to: 37
  - symbol: Ti # 64
    coordinates: [  0.166666666666667,  0.166666666666667,  0.875000000000000 ]
    mass: 47.867000
    reduced_to: 37
  - symbol: Ti # 65
    coordinates: [  0.500000000000000,  0.166666666666667,  0.875000000000000 ]
    mass: 47.867000
    reduced_to: 37
  - symbol: Ti # 66
    coordinates: [  0.833333333333333,  0.166666666666667,  0.875000000000000 ]
    mass: 47.867000
    reduced_to: 37
  - symbol: Ti # 67
    coordinates: [  0.166666666666667,  0.500000000000000,  0.875000000000000 ]
    mass: 47.867000
    reduced_to: 37
  - symbol: Ti # 68
    coordinates: [  0.500000000000000,  0.500000000000000,  0.875000000000000 ]
    mass: 47.867000
    reduced_to: 37
  - symbol: Ti # 69
    coordinates: [  0.833333333333333,  0.500000000000000,  0.875000000000000 ]
    mass: 47.867000
    reduced_to: 37
  - symbol: Ti # 70
    coordinates: [  0.166666666666667,  0.833333333333333,  0.875000000000000 ]
    mass: 47.867000
    reduced_to: 37
  - symbol: Ti # 71
    coordinates: [  0.500000000000000,  0.833333333333333,  0.875000000000000 ]
    mass: 47.867000
    reduced_to: 37
  - symbol: Ti # 72
    coordinates: [  0.833333333333333,  0.833333333333333,  0.875000000000000 ]
    mass: 47.867000
    reduced_to: 37
  - symbol: O  # 73
    coordinates: [  0.065108200462073,  0.268225132871261,  0.125000000000000 ]
    mass: 15.999400
    reduced_to: 73
  - symbol: O  # 74
    coordinates: [  0.398441533795406,  0.268225132871261,  0.125000000000000 ]
    mass: 15.999400
    reduced_to: 73
  - symbol: O  # 75
    coordinates: [  0.731774867128739,  0.268225132871261,  0.125000000000000 ]
    mass: 15.999400
    reduced_to: 73
  - symbol: O  # 76
    coordinates: [  0.065108200462073,  0.601558466204594,  0.125000000000000 ]
    mass: 15.999400
    reduced_to: 73
  - symbol: O  # 77
    coordinates: [  0.398441533795406,  0.601558466204594,  0.125000000000000 ]
    mass: 15.999400
    reduced_to: 73
  - symbol: O  # 78
    coordinates: [  0.731774867128739,  0.601558466204594,  0.125000000000000 ]
    mass: 15.999400
    reduced_to: 73
  - symbol: O  # 79
    coordinates: [  0.065108200462073,  0.934891799537927,  0.125000000000000 ]
    mass: 15.999400
    reduced_to: 73
  - symbol: O  # 80
    coordinates: [  0.398441533795406,  0.934891799537927,  0.125000000000000 ]
    mass: 15.999400
    reduced_to: 73
  - symbol: O  # 81
    coordinates: [  0.731774867128739,  0.934891799537927,  0.125000000000000 ]
    mass: 15.999400
    reduced_to: 73
  - symbol: O  # 82
    coordinates: [  0.065108200462073,  0.268225132871261,  0.375000000000000 ]
    mass: 15.999400
    reduced_to: 73
  - symbol: O  # 83
    coordinates: [  0.398441533795406,  0.268225132871261,  0.375000000000000 ]
    mass: 15.999400
    reduced_to: 73
  - symbol: O  # 84
    coordinates: [  0.731774867128739,  0.268225132871261,  0.375000000000000 ]
    mass: 15.999400
    reduced_to: 73
  - symbol: O  # 85
    coordinates: [  0.065108200462073,  0.601558466204594,  0.375000000000000 ]
    mass: 15.999400
    reduced_to: 73
  - symbol: O  # 86
    coordinates: [  0.398441533795406,  0.601558466204594,  0.375000000000000 ]
    mass: 15.999400
    reduced_to: 73
  - symbol: O  # 87
    coordinates: [  0.731774867128739,  0.601558466204594,  0.375000000000000 ]
    mass: 15.999400
    reduced_to: 73
  - symbol: O  # 88
    coordinates: [  0.065108200462073,  0.934891799537927,  0.375000000000000 ]
    mass: 15.999400
    reduced_to: 73
  - symbol: O  # 89
    coordinates: [  0.398441533795406,  0.934891799537927,  0.375000000000000 ]
    mass: 15.999400
    reduced_to: 73
  - symbol: O  # 90
    coordinates: [  0.731774867128739,  0.934891799537927,  0.375000000000000 ]
    mass: 15.999400
    reduced_to: 73
  - symbol: O  # 91
    coordinates: [  0.065108200462073,  0.268225132871261,  0.625000000000000 ]
    mass: 15.999400
    reduced_to: 73
  - symbol: O  # 92
    coordinates: [  0.398441533795406,  0.268225132871261,  0.625000000000000 ]
    mass: 15.999400
    reduced_to: 73
  - symbol: O  # 93
    coordinates: [  0.731774867128739,  0.268225132871261,  0.625000000000000 ]
    mass: 15.999400
    reduced_to: 73
  - symbol: O  # 94
    coordinates: [  0.065108200462073,  0.601558466204594,  0.625000000000000 ]
    mass: 15.999400
    reduced_to: 73
  - symbol: O  # 95
    coordinates: [  0.398441533795406,  0.601558466204594,  0.625000000000000 ]
    mass: 15.999400
    reduced_to: 73
  - symbol: O  # 96
    coordinates: [  0.731774867128739,  0.601558466204594,  0.625000000000000 ]
    mass: 15.999400
    reduced_to: 73
  - symbol: O  # 97
    coordinates: [  0.065108200462073,  0.934891799537927,  0.625000000000000 ]
    mass: 15.999400
    reduced_to: 73
  - symbol: O  # 98
    coordinates: [  0.398441533795406,  0.934891799537927,  0.625000000000000 ]
    mass: 15.999400
    reduced_to: 73
  - symbol: O  # 99
    coordinates: [  0.731774867128739,  0.934891799537927,  0.625000000000000 ]
    mass: 15.999400
    reduced_to: 73
  - symbol: O  # 100
    coordinates: [  0.065108200462073,  0.268225132871261,  0.875000000000000 ]
    mass: 15.999400
    reduced_to: 73
  - symbol: O  # 101
    coordinates: [  0.398441533795406,  0.268225132871261,  0.875000000000000 ]
    mass: 15.999400
    reduced_to: 73
  - symbol: O  # 102
    coordinates: [  0.731774867128739,  0.268225132871261,  0.875000000000000 ]
    mass: 15.999400
    reduced_to: 73
  - symbol: O  # 103
    coordinates: [  0.065108200462073,  0.601558466204594,  0.875000000000000 ]
    mass: 15.999400
    reduced_to: 73
  - symbol: O  # 104
    coordinates: [  0.398441533795406,  0.601558466204594,  0.875000000000000 ]
    mass: 15.999400
    reduced_to: 73
  - symbol: O  # 105
    coordinates: [  0.731774867128739,  0.601558466204594,  0.875000000000000 ]
    mass: 15.999400
    reduced_to: 73
  - symbol: O  # 106
    coordinates: [  0.065108200462073,  0.934891799537927,  0.875000000000000 ]
    mass: 15.999400
    reduced_to: 73
  - symbol: O  # 107
    coordinates: [  0.398441533795406,  0.934891799537927,  0.875000000000000 ]
    mass: 15.999400
    reduced_to: 73
  - symbol: O  # 108
    coordinates: [  0.731774867128739,  0.934891799537927,  0.875000000000000 ]
    mass: 15.999400
    reduced_to: 73
  - symbol: O  # 109
    coordinates: [  0.268225132871261,  0.065108200462073,  0.125000000000000 ]
    mass: 15.999400
    reduced_to: 109
  - symbol: O  # 110
    coordinates: [  0.601558466204594,  0.065108200462073,  0.125000000000000 ]
    mass: 15.999400
    reduced_to: 109
  - symbol: O  # 111
    coordinates: [  0.934891799537927,  0.065108200462073,  0.125000000000000 ]
    mass: 15.999400
    reduced_to: 109
  - symbol: O  # 112
    coordinates: [  0.268225132871261,  0.398441533795406,  0.125000000000000 ]
    mass: 15.999400
    reduced_to: 109
  - symbol: O  # 113
    coordinates: [  0.601558466204594,  0.398441533795406,  0.125000000000000 ]
    mass: 15.999400
    reduced_to: 109
  - symbol: O  # 114
    coordinates: [  0.934891799537927,  0.398441533795406,  0.125000000000000 ]
    mass: 15.999400
    reduced_to: 109
  - symbol: O  # 115
    coordinates: [  0.268225132871261,  0.731774867128739,  0.125000000000000 ]
    mass: 15.999400
    reduced_to: 109
  - symbol: O  # 116
    coordinates: [  0.601558466204594,  0.731774867128739,  0.125000000000000 ]
    mass: 15.999400
    reduced_to: 109
  - symbol: O  # 117
    coordinates: [  0.934891799537927,  0.731774867128739,  0.125000000000000 ]
    mass: 15.999400
    reduced_to: 109
  - symbol: O  # 118
    coordinates: [  0.268225132871261,  0.065108200462073,  0.375000000000000 ]
    mass: 15.999400
    reduced_to: 109
  - symbol: O  # 119
    coordinates: [  0.601558466204594,  0.065108200462073,  0.375000000000000 ]
    mass: 15.999400
    reduced_to: 109
  - symbol: O  # 120
    coordinates: [  0.934891799537927,  0.065108200462073,  0.375000000000000 ]
    mass: 15.999400
    reduced_to: 109
  - symbol: O  # 121
    coordinates: [  0.268225132871261,  0.398441533795406,  0.375000000000000 ]
    mass: 15.999400
    reduced_to: 109
  - symbol: O  # 122
    coordinates: [  0.601558466204594,  0.398441533795406,  0.375000000000000 ]
    mass: 15.999400
    reduced_to: 109
  - symbol: O  # 123
    coordinates: [  0.934891799537927,  0.398441533795406,  0.375000000000000 ]
    mass: 15.999400
    reduced_to: 109
  - symbol: O  # 124
    coordinates: [  0.268225132871261,  0.731774867128739,  0.375000000000000 ]
    mass: 15.999400
    reduced_to: 109
  - symbol: O  # 125
    coordinates: [  0.601558466204594,  0.731774867128739,  0.375000000000000 ]
    mass: 15.999400
    reduced_to: 109
  - symbol: O  # 126
    coordinates: [  0.934891799537927,  0.731774867128739,  0.375000000000000 ]
    mass: 15.999400
    reduced_to: 109
  - symbol: O  # 127
    coordinates: [  0.268225132871261,  0.065108200462073,  0.625000000000000 ]
    mass: 15.999400
    reduced_to: 109
  - symbol: O  # 128
    coordinates: [  0.601558466204594,  0.065108200462073,  0.625000000000000 ]
    mass: 15.999400
    reduced_to: 109
  - symbol: O  # 129
    coordinates: [  0.934891799537927,  0.065108200462073,  0.625000000000000 ]
    mass: 15.999400
    reduced_to: 109
  - symbol: O  # 130
    coordinates: [  0.268225132871261,  0.398441533795406,  0.625000000000000 ]
    mass: 15.999400
    reduced_to: 109
  - symbol: O  # 131
    coordinates: [  0.601558466204594,  0.398441533795406,  0.625000000000000 ]
    mass: 15.999400
    reduced_to: 109
  - symbol: O  # 132
    coordinates: [  0.934891799537927,  0.398441533795406,  0.625000000000000 ]
    mass: 15.999400
    reduced_to: 109
  - symbol: O  # 133
    coordinates: [  0.268225132871261,  0.731774867128739,  0.625000000000000 ]
    mass: 15.999400
    reduced_to: 109
  - symbol: O  # 134
    coordinates: [  0.601558466204594,  0.731774867128739,  0.625000000000000 ]
    mass: 15.999400
    reduced_to: 109
  - symbol: O  # 135
    coordinates: [  0.934891799537927,  0.731774867128739,  0.625000000000000 ]
    mass: 15.999400
    reduced_to: 109
  - symbol: O  # 136
    coordinates: [  0.268225132871261,  0.065108200462073,  0.875000000000000 ]
    mass: 15.999400
    reduced_to: 109
  - symbol: O  # 137
    coordinates: [  0.601558466204594,  0.065108200462073,  0.875000000000000 ]
    mass: 15.999400
    reduced_to: 109
  - symbol: O  # 138
    coordinates: [  0.934891799537927,  0.065108200462073,  0.875000000000000 ]
    mass: 15.999400
    reduced_to: 109
  - symbol: O  # 139
    coordinates: [  0.268225132871261,  0.398441533795406,  0.875000000000000 ]
    mass: 15.999400
    reduced_to: 109
  - symbol: O  # 140
    coordinates: [  0.601558466204594,  0.398441533795406,  0.875000000000000 ]
    mass: 15.999400
    reduced_to: 109
  - symbol: O  # 141
    coordinates: [  0.934891799537927,  0.398441533795406,  0.875000000000000 ]
    mass: 15.999400
    reduced_to: 109
  - symbol: O  # 142
    coordinates: [  0.268225132871261,  0.731774867128739,  0.875000000000000 ]
    mass: 15.999400
    reduced_to: 109
  - symbol: O  # 143
    coordinates: [  0.601558466204594,  0.731774867128739,  0.875000000000000 ]
    mass: 15.999400
    reduced_to: 109
  - symbol: O  # 144
    coordinates: [  0.934891799537927,  0.731774867128739,  0.875000000000000 ]
    mass: 15.999400
    reduced_to: 109
  - symbol: O  # 145
    coordinates: [  0.231774867128737,  0.231774867128737,  0.000000000000000 ]
    mass: 15.999400
    reduced_to: 145
  - symbol: O  # 146
    coordinates: [  0.565108200462070,  0.231774867128737,  0.000000000000000 ]
    mass: 15.999400
    reduced_to: 145
  - symbol: O  # 147
    coordinates: [  0.898441533795404,  0.231774867128737,  0.000000000000000 ]
    mass: 15.999400
    reduced_to: 145
  - symbol: O  # 148
    coordinates: [  0.231774867128737,  0.565108200462070,  0.000000000000000 ]
    mass: 15.999400
    reduced_to: 145
  - symbol: O  # 149
    coordinates: [  0.565108200462070,  0.565108200462070,  0.000000000000000 ]
    mass: 15.999400
    reduced_to: 145
  - symbol: O  # 150
    coordinates: [  0.898441533795404,  0.565108200462070,  0.000000000000000 ]
    mass: 15.999400
    reduced_to: 145
  - symbol: O  # 151
    coordinates: [  0.231774867128737,  0.898441533795404,  0.000000000000000 ]
    mass: 15.999400
    reduced_to: 145
  - symbol: O  # 152
    coordinates: [  0.565108200462070,  0.898441533795404,  0.000000000000000 ]
    mass: 15.999400
    reduced_to: 145
  - symbol: O  # 153
    coordinates: [  0.898441533795404,  0.898441533795404,  0.000000000000000 ]
    mass: 15.999400
    reduced_to: 145
  - symbol: O  # 154
    coordinates: [  0.231774867128737,  0.231774867128737,  0.250000000000000 ]
    mass: 15.999400
    reduced_to: 145
  - symbol: O  # 155
    coordinates: [  0.565108200462070,  0.231774867128737,  0.250000000000000 ]
    mass: 15.999400
    reduced_to: 145
  - symbol: O  # 156
    coordinates: [  0.898441533795404,  0.231774867128737,  0.250000000000000 ]
    mass: 15.999400
    reduced_to: 145
  - symbol: O  # 157
    coordinates: [  0.231774867128737,  0.565108200462070,  0.250000000000000 ]
    mass: 15.999400
    reduced_to: 145
  - symbol: O  # 158
    coordinates: [  0.565108200462070,  0.565108200462070,  0.250000000000000 ]
    mass: 15.999400
    reduced_to: 145
  - symbol: O  # 159
    coordinates: [  0.898441533795404,  0.565108200462070,  0.250000000000000 ]
    mass: 15.999400
    reduced_to: 145
  - symbol: O  # 160
    coordinates: [  0.231774867128737,  0.898441533795404,  0.250000000000000 ]
    mass: 15.999400
    reduced_to: 145
  - symbol: O  # 161
    coordinates: [  0.565108200462070,  0.898441533795404,  0.250000000000000 ]
    mass: 15.999400
    reduced_to: 145
  - symbol: O  # 162
    coordinates: [  0.898441533795404,  0.898441533795404,  0.250000000000000 ]
    mass: 15.999400
    reduced_to: 145
  - symbol: O  # 163
    coordinates: [  0.231774867128737,  0.231774867128737,  0.500000000000000 ]
    mass: 15.999400
    reduced_to: 145
  - symbol: O  # 164
    coordinates: [  0.565108200462070,  0.231774867128737,  0.500000000000000 ]
    mass: 15.999400
    reduced_to: 145
  - symbol: O  # 165
    coordinates: [  0.898441533795404,  0.231774867128737,  0.500000000000000 ]
    mass: 15.999400
    reduced_to: 145
  - symbol: O  # 166
    coordinates: [  0.231774867128737,  0.565108200462070,  0.500000000000000 ]
    mass: 15.999400
    reduced_to: 145
  - symbol: O  # 167
    coordinates: [  0.565108200462070,  0.565108200462070,  0.500000000000000 ]
    mass: 15.999400
    reduced_to: 145
  - symbol: O  # 168
    coordinates: [  0.898441533795404,  0.565108200462070,  0.500000000000000 ]
    mass: 15.999400
    reduced_to: 145
  - symbol: O  # 169
    coordinates: [  0.231774867128737,  0.898441533795404,  0.500000000000000 ]
    mass: 15.999400
    reduced_to: 145
  - symbol: O  # 170
    coordinates: [  0.565108200462070,  0.898441533795404,  0.500000000000000 ]
    mass: 15.999400
    reduced_to: 145
  - symbol: O  # 171
    coordinates: [  0.898441533795404,  0.898441533795404,  0.500000000000000 ]
    mass: 15.999400
    reduced_to: 145
  - symbol: O  # 172
    coordinates: [  0.231774867128737,  0.231774867128737,  0.750000000000000 ]
    mass: 15.999400
    reduced_to: 145
  - symbol: O  # 173
    coordinates: [  0.565108200462070,  0.231774867128737,  0.750000000000000 ]
    mass: 15.999400
    reduced_to: 145
  - symbol: O  # 174
    coordinates: [  0.898441533795404,  0.231774867128737,  0.750000000000000 ]
    mass: 15.999400
    reduced_to: 145
  - symbol: O  # 175
    coordinates: [  0.231774867128737,  0.565108200462070,  0.750000000000000 ]
    mass: 15.999400
    reduced_to: 145
  - symbol: O  # 176
    coordinates: [  0.565108200462070,  0.565108200462070,  0.750000000000000 ]
    mass: 15.999400
    reduced_to: 145
  - symbol: O  # 177
    coordinates: [  0.898441533795404,  0.565108200462070,  0.750000000000000 ]
    mass: 15.999400
    reduced_to: 145
  - symbol: O  # 178
    coordinates: [  0.231774867128737,  0.898441533795404,  0.750000000000000 ]
    mass: 15.999400
    reduced_to: 145
  - symbol: O  # 179
    coordinates: [  0.565108200462070,  0.898441533795404,  0.750000000000000 ]
    mass: 15.999400
    reduced_to: 145
  - symbol: O  # 180
    coordinates: [  0.898441533795404,  0.898441533795404,  0.750000000000000 ]
    mass: 15.999400
    reduced_to: 145
  - symbol: O  # 181
    coordinates: [  0.101558466204596,  0.101558466204596,  0.000000000000000 ]
    mass: 15.999400
    reduced_to: 181
  - symbol: O  # 182
    coordinates: [  0.434891799537930,  0.101558466204596,  0.000000000000000 ]
    mass: 15.999400
    reduced_to: 181
  - symbol: O  # 183
    coordinates: [  0.768225132871263,  0.101558466204596,  0.000000000000000 ]
    mass: 15.999400
    reduced_to: 181
  - symbol: O  # 184
    coordinates: [  0.101558466204596,  0.434891799537930,  0.000000000000000 ]
    mass: 15.999400
    reduced_to: 181
  - symbol: O  # 185
    coordinates: [  0.434891799537930,  0.434891799537930,  0.000000000000000 ]
    mass: 15.999400
    reduced_to: 181
  - symbol: O  # 186
    coordinates: [  0.768225132871263,  0.434891799537930,  0.000000000000000 ]
    mass: 15.999400
    reduced_to: 181
  - symbol: O  # 187
    coordinates: [  0.101558466204596,  0.768225132871263,  0.000000000000000 ]
    mass: 15.999400
    reduced_to: 181
  - symbol: O  # 188
    coordinates: [  0.434891799537930,  0.768225132871263,  0.000000000000000 ]
    mass: 15.999400
    reduced_to: 181
  - symbol: O  # 189
    coordinates: [  0.768225132871263,  0.768225132871263,  0.000000000000000 ]
    mass: 15.999400
    reduced_to: 181
  - symbol: O  # 190
    coordinates: [  0.101558466204596,  0.101558466204596,  0.250000000000000 ]
    mass: 15.999400
    reduced_to: 181
  - symbol: O  # 191
    coordinates: [  0.434891799537930,  0.101558466204596,  0.250000000000000 ]
    mass: 15.999400