# epsilon and Z* of atoms 1 3
   7.95986424    0.00000000    0.00000000    0.00000000    7.95986424    0.00000000    0.00000000    0.00000000    9.77308295 
   6.48351229    1.12137427    0.00000000    1.12137427    6.48351229    0.00000000    0.00000000    0.00000000    8.13997738 
  -3.24175614    1.91676778    0.00000000    1.91676778   -3.24175614    0.00000000    0.00000000    0.00000000   -4.06998869 
