   6   6   1   0
  0.1075314E+02  0.4661790E-09  0.4661790E-09  0.2968801E-09  0.5000000E-15
  1.000000000000000E-004
  CAR 
 VaspCalc                                
     33.59966384    -18.83776320  301      1.80947370      1.00000000
    -18.838  0.0000E+00  0.0000E+00
    -18.663  0.0000E+00  0.0000E+00
    -18.488  0.0000E+00  0.0000E+00
    -18.313  0.0000E+00  0.0000E+00
    -18.139  0.0000E+00  0.0000E+00
    -17.964  0.0000E+00  0.0000E+00
    -17.789  0.0000E+00  0.0000E+00
    -17.614  0.0000E+00  0.0000E+00
    -17.439  0.0000E+00  0.0000E+00
    -17.265  0.0000E+00  0.0000E+00
    -17.090  0.0000E+00  0.0000E+00
    -16.915  0.0000E+00  0.0000E+00
    -16.740  0.0000E+00  0.0000E+00
    -16.565  0.1622E-06  0.2836E-07
    -16.391  0.9543E-01  0.1668E-01
    -16.216  0.6017E+00  0.1218E+00
    -16.041  0.1047E+01  0.3049E+00
    -15.866  0.1665E+01  0.5958E+00
    -15.692  0.2728E+01  0.1073E+01
    -15.517  0.3261E+01  0.1643E+01
    -15.342  0.6490E+01  0.2777E+01
    -15.167  0.6314E+01  0.3881E+01
    -14.992  0.1317E+02  0.6183E+01
    -14.818  0.1013E+02  0.7953E+01
    -14.643  0.2670E+00  0.8000E+01
    -14.468  0.0000E+00  0.8000E+01
    -14.293  0.0000E+00  0.8000E+01
    -14.118  0.0000E+00  0.8000E+01
    -13.944  0.0000E+00  0.8000E+01
    -13.769  0.0000E+00  0.8000E+01
    -13.594  0.0000E+00  0.8000E+01
    -13.419  0.0000E+00  0.8000E+01
    -13.244  0.0000E+00  0.8000E+01
    -13.070  0.0000E+00  0.8000E+01
    -12.895  0.0000E+00  0.8000E+01
    -12.720  0.0000E+00  0.8000E+01
    -12.545  0.0000E+00  0.8000E+01
    -12.370  0.0000E+00  0.8000E+01
    -12.196  0.0000E+00  0.8000E+01
    -12.021  0.0000E+00  0.8000E+01
    -11.846  0.0000E+00  0.8000E+01
    -11.671  0.0000E+00  0.8000E+01
    -11.497  0.0000E+00  0.8000E+01
    -11.322  0.0000E+00  0.8000E+01
    -11.147  0.0000E+00  0.8000E+01
    -10.972  0.0000E+00  0.8000E+01
    -10.797  0.0000E+00  0.8000E+01
    -10.623  0.0000E+00  0.8000E+01
    -10.448  0.0000E+00  0.8000E+01
    -10.273  0.0000E+00  0.8000E+01
    -10.098  0.0000E+00  0.8000E+01
     -9.923  0.0000E+00  0.8000E+01
     -9.749  0.0000E+00  0.8000E+01
     -9.574  0.0000E+00  0.8000E+01
     -9.399  0.0000E+00  0.8000E+01
     -9.224  0.0000E+00  0.8000E+01
     -9.049  0.0000E+00  0.8000E+01
     -8.875  0.0000E+00  0.8000E+01
     -8.700  0.0000E+00  0.8000E+01
     -8.525  0.0000E+00  0.8000E+01
     -8.350  0.0000E+00  0.8000E+01
     -8.175  0.0000E+00  0.8000E+01
     -8.001  0.0000E+00  0.8000E+01
     -7.826  0.0000E+00  0.8000E+01
     -7.651  0.0000E+00  0.8000E+01
     -7.476  0.0000E+00  0.8000E+01
     -7.302  0.0000E+00  0.8000E+01
     -7.127  0.0000E+00  0.8000E+01
     -6.952  0.0000E+00  0.8000E+01
     -6.777  0.0000E+00  0.8000E+01
     -6.602  0.0000E+00  0.8000E+01
     -6.428  0.0000E+00  0.8000E+01
     -6.253  0.0000E+00  0.8000E+01
     -6.078  0.0000E+00  0.8000E+01
     -5.903  0.0000E+00  0.8000E+01
     -5.728  0.0000E+00  0.8000E+01
     -5.554  0.0000E+00  0.8000E+01
     -5.379  0.0000E+00  0.8000E+01
     -5.204  0.0000E+00  0.8000E+01
     -5.029  0.0000E+00  0.8000E+01
     -4.854  0.0000E+00  0.8000E+01
     -4.680  0.0000E+00  0.8000E+01
     -4.505  0.0000E+00  0.8000E+01
     -4.330  0.0000E+00  0.8000E+01
     -4.155  0.8679E-10  0.8000E+01
     -3.980  0.1134E-01  0.8002E+01
     -3.806  0.2443E+00  0.8045E+01
     -3.631  0.1314E+01  0.8274E+01
     -3.456  0.1695E+01  0.8571E+01
     -3.281  0.2162E+01  0.8949E+01
     -3.107  0.4429E+01  0.9723E+01
     -2.932  0.5335E+01  0.1066E+02
     -2.757  0.6656E+01  0.1182E+02
     -2.582  0.8014E+01  0.1322E+02
     -2.407  0.6901E+01  0.1443E+02
     -2.233  0.6233E+01  0.1552E+02
     -2.058  0.4630E+01  0.1632E+02
     -1.883  0.3815E+01  0.1699E+02
     -1.708  0.3728E+01  0.1764E+02
     -1.533  0.3891E+01  0.1832E+02
     -1.359  0.3754E+01  0.1898E+02
     -1.184  0.4098E+01  0.1970E+02
     -1.009  0.5546E+01  0.2066E+02
     -0.834  0.5774E+01  0.2167E+02
     -0.659  0.5838E+01  0.2269E+02
     -0.485  0.5191E+01  0.2360E+02
     -0.310  0.5010E+01  0.2448E+02
     -0.135  0.6092E+01  0.2554E+02
      0.040  0.6107E+01  0.2661E+02
      0.215  0.5749E+01  0.2761E+02
      0.389  0.4711E+01  0.2844E+02
      0.564  0.4837E+01  0.2928E+02
      0.739  0.5238E+01  0.3020E+02
      0.914  0.5131E+01  0.3110E+02
      1.088  0.2536E+01  0.3154E+02
      1.263  0.1390E+01  0.3178E+02
      1.438  0.8213E+00  0.3193E+02
      1.613  0.4179E+00  0.3200E+02
      1.788  0.4658E-02  0.3200E+02
      1.962  0.0000E+00  0.3200E+02
      2.137  0.0000E+00  0.3200E+02
      2.312  0.0000E+00  0.3200E+02
      2.487  0.0000E+00  0.3200E+02
      2.662  0.0000E+00  0.3200E+02
      2.836  0.0000E+00  0.3200E+02
      3.011  0.4787E-17  0.3200E+02
      3.186  0.2081E-03  0.3200E+02
      3.361  0.7454E+00  0.3213E+02
      3.536  0.3706E+01  0.3278E+02
      3.710  0.4464E+01  0.3356E+02
      3.885  0.5716E+01  0.3456E+02
      4.060  0.8225E+01  0.3600E+02
      4.235  0.6991E+01  0.3722E+02
      4.409  0.7559E+01  0.3854E+02
      4.584  0.1025E+02  0.4033E+02
      4.759  0.5072E+01  0.4122E+02
      4.934  0.4557E+01  0.4201E+02
      5.109  0.5385E+01  0.4295E+02
      5.283  0.4011E+01  0.4366E+02
      5.458  0.1081E+01  0.4384E+02
      5.633  0.6883E+00  0.4396E+02
      5.808  0.4674E+00  0.4405E+02
      5.983  0.4299E+00  0.4412E+02
      6.157  0.3045E+01  0.4465E+02
      6.332  0.3494E+01  0.4526E+02
      6.507  0.3176E+01  0.4582E+02
      6.682  0.2642E+01  0.4628E+02
      6.857  0.2888E+01  0.4679E+02
      7.031  0.3349E+01  0.4737E+02
      7.206  0.2511E+01  0.4781E+02
      7.381  0.4215E+01  0.4855E+02
      7.556  0.5522E+01  0.4951E+02
      7.731  0.4657E+01  0.5033E+02
      7.905  0.2807E+01  0.5082E+02
      8.080  0.3581E+01  0.5144E+02
      8.255  0.2493E+01  0.5188E+02
      8.430  0.4547E+00  0.5196E+02
      8.604  0.2119E+00  0.5200E+02
      8.779  0.2672E-01  0.5200E+02
      8.954  0.8225E-08  0.5200E+02
      9.129  0.5163E-13  0.5200E+02
      9.304  0.8783E-03  0.5200E+02
      9.478  0.4798E-01  0.5201E+02
      9.653  0.1054E+00  0.5203E+02
      9.828  0.1112E+00  0.5205E+02
     10.003  0.1482E+00  0.5207E+02
     10.178  0.1816E+00  0.5210E+02
     10.352  0.2525E+00  0.5215E+02
     10.527  0.2185E+00  0.5219E+02
     10.702  0.3210E+00  0.5224E+02
     10.877  0.2948E+00  0.5229E+02
     11.052  0.4208E+00  0.5237E+02
     11.226  0.3700E+00  0.5243E+02
     11.401  0.5727E+00  0.5253E+02
     11.576  0.4834E+00  0.5262E+02
     11.751  0.6476E+00  0.5273E+02
     11.926  0.6998E+00  0.5285E+02
     12.100  0.7739E+00  0.5299E+02
     12.275  0.9543E+00  0.5315E+02
     12.450  0.1030E+01  0.5333E+02
     12.625  0.1418E+01  0.5358E+02
     12.799  0.1783E+01  0.5389E+02
     12.974  0.1523E+01  0.5416E+02
     13.149  0.2351E+01  0.5457E+02
     13.324  0.2275E+01  0.5497E+02
     13.499  0.1863E+01  0.5529E+02
     13.673  0.1522E+01  0.5556E+02
     13.848  0.1271E+01  0.5578E+02
     14.023  0.1513E+01  0.5605E+02
     14.198  0.1015E+01  0.5622E+02
     14.373  0.1421E+01  0.5647E+02
     14.547  0.1203E+01  0.5668E+02
     14.722  0.1342E+01  0.5692E+02
     14.897  0.1954E+01  0.5726E+02
     15.072  0.1762E+01  0.5757E+02
     15.247  0.1823E+01  0.5789E+02
     15.421  0.1413E+01  0.5813E+02
     15.596  0.1697E+01  0.5843E+02
     15.771  0.1649E+01  0.5872E+02
     15.946  0.1750E+01  0.5902E+02
     16.121  0.2146E+01  0.5940E+02
     16.295  0.2806E+01  0.5989E+02
     16.470  0.3388E+01  0.6048E+02
     16.645  0.4230E+01  0.6122E+02
     16.820  0.5241E+01  0.6214E+02
     16.994  0.3229E+01  0.6270E+02
     17.169  0.2796E+01  0.6319E+02
     17.344  0.2518E+01  0.6363E+02
     17.519  0.2880E+01  0.6413E+02
     17.694  0.4301E+01  0.6489E+02
     17.868  0.4237E+01  0.6563E+02
     18.043  0.4052E+01  0.6633E+02
     18.218  0.4078E+01  0.6705E+02
     18.393  0.3798E+01  0.6771E+02
     18.568  0.3809E+01  0.6838E+02
     18.742  0.3226E+01  0.6894E+02
     18.917  0.2969E+01  0.6946E+02
     19.092  0.2664E+01  0.6992E+02
     19.267  0.2540E+01  0.7037E+02
     19.442  0.2312E+01  0.7077E+02
     19.616  0.2166E+01  0.7115E+02
     19.791  0.3446E+01  0.7175E+02
     19.966  0.3722E+01  0.7240E+02
     20.141  0.3036E+01  0.7294E+02
     20.316  0.2704E+01  0.7341E+02
     20.490  0.2408E+01  0.7383E+02
     20.665  0.1946E+01  0.7417E+02
     20.840  0.2069E+01  0.7453E+02
     21.015  0.2375E+01  0.7495E+02
     21.189  0.2789E+01  0.7543E+02
     21.364  0.2624E+01  0.7589E+02
     21.539  0.2368E+01  0.7631E+02
     21.714  0.2279E+01  0.7670E+02
     21.889  0.1985E+01  0.7705E+02
     22.063  0.2024E+01  0.7740E+02
     22.238  0.1676E+01  0.7770E+02
     22.413  0.1756E+01  0.7800E+02
     22.588  0.1436E+01  0.7826E+02
     22.763  0.1858E+01  0.7858E+02
     22.937  0.1274E+01  0.7880E+02
     23.112  0.1496E+01  0.7906E+02
     23.287  0.1367E+01  0.7930E+02
     23.462  0.1503E+01  0.7957E+02
     23.637  0.1573E+01  0.7984E+02
     23.811  0.2106E+01  0.8021E+02
     23.986  0.2203E+01  0.8059E+02
     24.161  0.2224E+01  0.8098E+02
     24.336  0.2775E+01  0.8147E+02
     24.511  0.2843E+01  0.8196E+02
     24.685  0.3007E+01  0.8249E+02
     24.860  0.3716E+01  0.8314E+02
     25.035  0.4039E+01  0.8385E+02
     25.210  0.3234E+01  0.8441E+02
     25.384  0.2793E+01  0.8490E+02
     25.559  0.2666E+01  0.8537E+02
     25.734  0.2152E+01  0.8574E+02
     25.909  0.2128E+01  0.8611E+02
     26.084  0.1310E+01  0.8634E+02
     26.258  0.1239E+01  0.8656E+02
     26.433  0.1143E+01  0.8676E+02
     26.608  0.1164E+01  0.8696E+02
     26.783  0.8130E+00  0.8710E+02
     26.958  0.9847E+00  0.8728E+02
     27.132  0.8398E+00  0.8742E+02
     27.307  0.8094E+00  0.8756E+02
     27.482  0.5950E+00  0.8767E+02
     27.657  0.6869E+00  0.8779E+02
     27.832  0.9387E+00  0.8795E+02
     28.006  0.9448E+00  0.8812E+02
     28.181  0.1310E+01  0.8835E+02
     28.356  0.3039E+01  0.8888E+02
     28.531  0.3685E+01  0.8952E+02
     28.706  0.3450E+01  0.9013E+02
     28.880  0.2763E+01  0.9061E+02
     29.055  0.2582E+01  0.9106E+02
     29.230  0.3067E+01  0.9160E+02
     29.405  0.3235E+01  0.9216E+02
     29.579  0.4019E+01  0.9286E+02
     29.754  0.4571E+01  0.9366E+02
     29.929  0.3980E+01  0.9436E+02
     30.104  0.3491E+01  0.9497E+02
     30.279  0.2551E+01  0.9541E+02
     30.453  0.1665E+01  0.9571E+02
     30.628  0.1224E+01  0.9592E+02
     30.803  0.3902E+00  0.9599E+02
     30.978  0.4224E-01  0.9600E+02
     31.153  0.2359E-01  0.9600E+02
     31.327  0.4368E-02  0.9600E+02
     31.502  0.1858E-06  0.9600E+02
     31.677  0.0000E+00  0.9600E+02
     31.852  0.0000E+00  0.9600E+02
     32.027  0.0000E+00  0.9600E+02
     32.201  0.0000E+00  0.9600E+02
     32.376  0.0000E+00  0.9600E+02
     32.551  0.0000E+00  0.9600E+02
     32.726  0.0000E+00  0.9600E+02
     32.900  0.0000E+00  0.9600E+02
     33.075  0.0000E+00  0.9600E+02
     33.250  0.0000E+00  0.9600E+02
     33.425  0.0000E+00  0.9600E+02
     33.600  0.0000E+00  0.9600E+02
     33.59966384    -18.83776320  301      1.80947370      1.00000000
    -18.838  0.0000E+00  0.0000E+00  0.0000E+00  0.0000E+00  0.0000E+00  0.0000E+00  0.0000E+00  0.0000E+00  0.0000E+00
    -18.663  0.0000E+00  0.0000E+00  0.0000E+00  0.0000E+00  0.0000E+00  0.0000E+00  0.0000E+00  0.0000E+00  0.0000E+00
    -18.488  0.0000E+00  0.0000E+00  0.0000E+00  0.0000E+00  0.0000E+00  0.0000E+00  0.0000E+00  0.0000E+00  0.0000E+00
    -18.313  0.0000E+00  0.0000E+00  0.0000E+00  0.0000E+00  0.0000E+00  0.0000E+00  0.0000E+00  0.0000E+00  0.0000E+00
    -18.139  0.0000E+00  0.0000E+00  0.0000E+00  0.0000E+00  0.0000E+00  0.0000E+00  0.0000E+00  0.0000E+00  0.0000E+00
    -17.964  0.0000E+00  0.0000E+00  0.0000E+00  0.0000E+00  0.0000E+00  0.0000E+00  0.0000E+00  0.0000E+00  0.0000E+00
    -17.789  0.0000E+00  0.0000E+00  0.0000E+00  0.0000E+00  0.0000E+00  0.0000E+00  0.0000E+00  0.0000E+00  0.0000E+00
    -17.614  0.0000E+00  0.0000E+00  0.0000E+00  0.0000E+00  0.0000E+00  0.0000E+00  0.0000E+00  0.0000E+00  0.0000E+00
    -17.439  0.0000E+00  0.0000E+00  0.0000E+00  0.0000E+00  0.0000E+00  0.0000E+00  0.0000E+00  0.0000E+00  0.0000E+00
    -17.265  0.0000E+00  0.0000E+00  0.0000E+00  0.0000E+00  0.0000E+00  0.0000E+00  0.0000E+00  0.0000E+00  0.0000E+00
    -17.090  0.0000E+00  0.0000E+00  0.0000E+00  0.0000E+00  0.0000E+00  0.0000E+00  0.0000E+00  0.0000E+00  0.0000E+00
    -16.915  0.0000E+00  0.0000E+00  0.0000E+00  0.0000E+00  0.0000E+00  0.0000E+00  0.0000E+00  0.0000E+00  0.0000E+00
    -16.740  0.0000E+00  0.0000E+00  0.0000E+00  0.0000E+00  0.0000E+00  0.0000E+00  0.0000E+00  0.0000E+00  0.0000E+00
    -16.565  0.1603E-07  0.2238E-11  0.1199E-10  0.1741E-10  0.5711E-12  0.8807E-14  0.4156E-09  0.1439E-13  0.6396E-15
    -16.391  0.9222E-02  0.1928E-04  0.5952E-04  0.6113E-04  0.5222E-05  0.1419E-06  0.2651E-03  0.2539E-06  0.5307E-08
    -16.216  0.5452E-01  0.3671E-03  0.1264E-02  0.1287E-02  0.3127E-03  0.7686E-05  0.2179E-02  0.1489E-04  0.3100E-06
    -16.041  0.8553E-01  0.1041E-02  0.4681E-02  0.4106E-02  0.2324E-02  0.5764E-04  0.5673E-02  0.1058E-03  0.1669E-05
    -15.866  0.1200E+00  0.1666E-02  0.1131E-01  0.8643E-02  0.1064E-01  0.2585E-03  0.1467E-01  0.4278E-03  0.5064E-05
    -15.692  0.1642E+00  0.1935E-02  0.2369E-01  0.1480E-01  0.2349E-01  0.9673E-03  0.2282E-01  0.1416E-02  0.9880E-05
    -15.517  0.1517E+00  0.3542E-02  0.4018E-01  0.2165E-01  0.1483E-01  0.3645E-02  0.1183E-01  0.4687E-02  0.1428E-04
    -15.342  0.1708E+00  0.7822E-02  0.5739E-01  0.3221E-01  0.6540E-01  0.4903E-01  0.3074E-01  0.5237E-01  0.3614E-04
    -15.167  0.5607E-01  0.9880E-02  0.4660E-01  0.3203E-01  0.7290E-01  0.1427E+00  0.3807E-01  0.1471E+00  0.1984E-04
    -14.992  0.2273E-01  0.1032E+00  0.1985E+00  0.6259E-01  0.1616E+00  0.1729E+00  0.8732E-01  0.1683E+00  0.3038E-04
    -14.818  0.5742E-02  0.1585E+00  0.5510E-01  0.1158E+00  0.1104E+00  0.4474E-01  0.5378E-01  0.4372E-01  0.4911E-04
    -14.643  0.3269E-04  0.7615E-02  0.3430E-05  0.4672E-02  0.5826E-03  0.4165E-03  0.2756E-03  0.4069E-03  0.1111E-05
    -14.468  0.0000E+00  0.0000E+00  0.0000E+00  0.0000E+00  0.0000E+00  0.0000E+00  0.0000E+00  0.0000E+00  0.0000E+00
    -14.293  0.0000E+00  0.0000E+00  0.0000E+00  0.0000E+00  0.0000E+00  0.0000E+00  0.0000E+00  0.0000E+00  0.0000E+00
    -14.118  0.0000E+00  0.0000E+00  0.0000E+00  0.0000E+00  0.0000E+00  0.0000E+00  0.0000E+00  0.0000E+00  0.0000E+00
    -13.944  0.0000E+00  0.0000E+00  0.0000E+00  0.0000E+00  0.0000E+00  0.0000E+00  0.0000E+00  0.0000E+00  0.0000E+00
    -13.769  0.0000E+00  0.0000E+00  0.0000E+00  0.0000E+00  0.0000E+00  0.0000E+00  0.0000E+00  0.0000E+00  0.0000E+00
    -13.594  0.0000E+00  0.0000E+00  0.0000E+00  0.0000E+00  0.0000E+00  0.0000E+00  0.0000E+00  0.0000E+00  0.0000E+00
    -13.419  0.0000E+00  0.0000E+00  0.0000E+00  0.0000E+00  0.0000E+00  0.0000E+00  0.0000E+00  0.0000E+00  0.0000E+00
    -13.244  0.0000E+00  0.0000E+00  0.0000E+00  0.0000E+00  0.0000E+00  0.0000E+00  0.0000E+00  0.0000E+00  0.0000E+00
    -13.070  0.0000E+00  0.0000E+00  0.0000E+00  0.0000E+00  0.0000E+00  0.0000E+00  0.0000E+00  0.0000E+00  0.0000E+00
    -12.895  0.0000E+00  0.0000E+00  0.0000E+00  0.0000E+00  0.0000E+00  0.0000E+00  0.0000E+00  0.0000E+00  0.0000E+00
    -12.720  0.0000E+00  0.0000E+00  0.0000E+00  0.0000E+00  0.0000E+00  0.0000E+00  0.0000E+00  0.0000E+00  0.0000E+00
    -12.545  0.0000E+00  0.0000E+00  0.0000E+00  0.0000E+00  0.0000E+00  0.0000E+00  0.0000E+00  0.0000E+00  0.0000E+00
    -12.370  0.0000E+00  0.0000E+00  0.0000E+00  0.0000E+00  0.0000E+00  0.0000E+00  0.0000E+00  0.0000E+00  0.0000E+00
    -12.196  0.0000E+00  0.0000E+00  0.0000E+00  0.0000E+00  0.0000E+00  0.0000E+00  0.0000E+00  0.0000E+00  0.0000E+00
    -12.021  0.0000E+00  0.0000E+00  0.0000E+00  0.0000E+00  0.0000E+00  0.0000E+00  0.0000E+00  0.0000E+00  0.0000E+00
    -11.846  0.0000E+00  0.0000E+00  0.0000E+00  0.0000E+00  0.0000E+00  0.0000E+00  0.0000E+00  0.0000E+00  0.0000E+00
    -11.671  0.0000E+00  0.0000E+00  0.0000E+00  0.0000E+00  0.0000E+00  0.0000E+00  0.0000E+00  0.0000E+00  0.0000E+00
    -11.497  0.0000E+00  0.0000E+00  0.0000E+00  0.0000E+00  0.0000E+00  0.0000E+00  0.0000E+00  0.0000E+00  0.0000E+00
    -11.322  0.0000E+00  0.0000E+00  0.0000E+00  0.0000E+00  0.0000E+00  0.0000E+00  0.0000E+00  0.0000E+00  0.0000E+00
    -11.147  0.0000E+00  0.0000E+00  0.0000E+00  0.0000E+00  0.0000E+00  0.0000E+00  0.0000E+00  0.0000E+00  0.0000E+00
    -10.972  0.0000E+00  0.0000E+00  0.0000E+00  0.0000E+00  0.0000E+00  0.0000E+00  0.0000E+00  0.0000E+00  0.0000E+00
    -10.797  0.0000E+00  0.0000E+00  0.0000E+00  0.0000E+00  0.0000E+00  0.0000E+00  0.0000E+00  0.0000E+00  0.0000E+00
    -10.623  0.0000E+00  0.0000E+00  0.0000E+00  0.0000E+00  0.0000E+00  0.0000E+00  0.0000E+00  0.0000E+00  0.0000E+00
    -10.448  0.0000E+00  0.0000E+00  0.0000E+00  0.0000E+00  0.0000E+00  0.0000E+00  0.0000E+00  0.0000E+00  0.0000E+00
    -10.273  0.0000E+00  0.0000E+00  0.0000E+00  0.0000E+00  0.0000E+00  0.0000E+00  0.0000E+00  0.0000E+00  0.0000E+00
    -10.098  0.0000E+00  0.0000E+00  0.0000E+00  0.0000E+00  0.0000E+00  0.0000E+00  0.0000E+00  0.0000E+00  0.0000E+00
     -9.923  0.0000E+00  0.0000E+00  0.0000E+00  0.0000E+00  0.0000E+00  0.0000E+00  0.0000E+00  0.0000E+00  0.0000E+00
     -9.749  0.0000E+00  0.0000E+00  0.0000E+00  0.0000E+00  0.0000E+00  0.0000E+00  0.0000E+00  0.0000E+00  0.0000E+00
     -9.574  0.0000E+00  0.0000E+00  0.0000E+00  0.0000E+00  0.0000E+00  0.0000E+00  0.0000E+00  0.0000E+00  0.0000E+00
     -9.399  0.0000E+00  0.0000E+00  0.0000E+00  0.0000E+00  0.0000E+00  0.0000E+00  0.0000E+00  0.0000E+00  0.0000E+00
     -9.224  0.0000E+00  0.0000E+00  0.0000E+00  0.0000E+00  0.0000E+00  0.0000E+00  0.0000E+00  0.0000E+00  0.0000E+00
     -9.049  0.0000E+00  0.0000E+00  0.0000E+00  0.0000E+00  0.0000E+00  0.0000E+00  0.0000E+00  0.0000E+00  0.0000E+00
     -8.875  0.0000E+00  0.0000E+00  0.0000E+00  0.0000E+00  0.0000E+00  0.0000E+00  0.0000E+00  0.0000E+00  0.0000E+00
     -8.700  0.0000E+00  0.0000E+00  0.0000E+00  0.0000E+00  0.0000E+00  0.0000E+00  0.0000E+00  0.0000E+00  0.0000E+00
     -8.525  0.0000E+00  0.0000E+00  0.0000E+00  0.0000E+00  0.0000E+00  0.0000E+00  0.0000E+00  0.0000E+00  0.0000E+00
     -8.350  0.0000E+00  0.0000E+00  0.0000E+00  0.0000E+00  0.0000E+00  0.0000E+00  0.0000E+00  0.0000E+00  0.0000E+00
     -8.175  0.0000E+00  0.0000E+00  0.0000E+00  0.0000E+00  0.0000E+00  0.0000E+00  0.0000E+00  0.0000E+00  0.0000E+00
     -8.001  0.0000E+00  0.0000E+00  0.0000E+00  0.0000E+00  0.0000E+00  0.0000E+00  0.0000E+00  0.0000E+00  0.0000E+00
     -7.826  0.0000E+00  0.0000E+00  0.0000E+00  0.0000E+00  0.0000E+00  0.0000E+00  0.0000E+00  0.0000E+00  0.0000E+00
     -7.651  0.0000E+00  0.0000E+00  0.0000E+00  0.0000E+00  0.0000E+00  0.0000E+00  0.0000E+00  0.0000E+00  0.0000E+00
     -7.476  0.0000E+00  0.0000E+00  0.0000E+00  0.0000E+00  0.0000E+00  0.0000E+00  0.0000E+00  0.0000E+00  0.0000E+00
     -7.302  0.0000E+00  0.0000E+00  0.0000E+00  0.0000E+00  0.0000E+00  0.0000E+00  0.0000E+00  0.0000E+00  0.0000E+00
     -7.127  0.0000E+00  0.0000E+00  0.0000E+00  0.0000E+00  0.0000E+00  0.0000E+00  0.0000E+00  0.0000E+00  0.0000E+00
     -6.952  0.0000E+00  0.0000E+00  0.0000E+00  0.0000E+00  0.0000E+00  0.0000E+00  0.0000E+00  0.0000E+00  0.0000E+00
     -6.777  0.0000E+00  0.0000E+00  0.0000E+00  0.0000E+00  0.0000E+00  0.0000E+00  0.0000E+00  0.0000E+00  0.0000E+00
     -6.602  0.0000E+00  0.0000E+00  0.0000E+00  0.0000E+00  0.0000E+00  0.0000E+00  0.0000E+00  0.0000E+00  0.0000E+00
     -6.428  0.0000E+00  0.0000E+00  0.0000E+00  0.0000E+00  0.0000E+00  0.0000E+00  0.0000E+00  0.0000E+00  0.0000E+00
     -6.253  0.0000E+00  0.0000E+00  0.0000E+00  0.0000E+00  0.0000E+00  0.0000E+00  0.0000E+00  0.0000E+00  0.0000E+00
     -6.078  0.0000E+00  0.0000E+00  0.0000E+00  0.0000E+00  0.0000E+00  0.0000E+00  0.0000E+00  0.0000E+00  0.0000E+00
     -5.903  0.0000E+00  0.0000E+00  0.0000E+00  0.0000E+00  0.0000E+00  0.0000E+00  0.0000E+00  0.0000E+00  0.0000E+00
     -5.728  0.0000E+00  0.0000E+00  0.0000E+00  0.0000E+00  0.0000E+00  0.0000E+00  0.0000E+00  0.0000E+00  0.0000E+00
     -5.554  0.0000E+00  0.0000E+00  0.0000E+00  0.0000E+00  0.0000E+00  0.0000E+00  0.0000E+00  0.0000E+00  0.0000E+00
     -5.379  0.0000E+00  0.0000E+00  0.0000E+00  0.0000E+00  0.0000E+00  0.0000E+00  0.0000E+00  0.0000E+00  0.0000E+00
     -5.204  0.0000E+00  0.0000E+00  0.0000E+00  0.0000E+00  0.0000E+00  0.0000E+00  0.0000E+00  0.0000E+00  0.0000E+00
     -5.029  0.0000E+00  0.0000E+00  0.0000E+00  0.0000E+00  0.0000E+00  0.0000E+00  0.0000E+00  0.0000E+00  0.0000E+00
     -4.854  0.0000E+00  0.0000E+00  0.0000E+00  0.0000E+00  0.0000E+00  0.0000E+00  0.0000E+00  0.0000E+00  0.0000E+00
     -4.680  0.0000E+00  0.0000E+00  0.0000E+00  0.0000E+00  0.0000E+00  0.0000E+00  0.0000E+00  0.0000E+00  0.0000E+00
     -4.505  0.0000E+00  0.0000E+00  0.0000E+00  0.0000E+00  0.0000E+00  0.0000E+00  0.0000E+00  0.0000E+00  0.0000E+00
     -4.330  0.0000E+00  0.0000E+00  0.0000E+00  0.0000E+00  0.0000E+00  0.0000E+00  0.0000E+00  0.0000E+00  0.0000E+00
     -4.155  0.1145E-10  0.3156E-15  0.7318E-15  0.7295E-15  0.5064E-11  0.4223E-19  0.3715E-11  0.5632E-19  0.1252E-16
     -3.980  0.1475E-02  0.6126E-05  0.6567E-05  0.9341E-05  0.6252E-03  0.4923E-07  0.5292E-03  0.6561E-07  0.1002E-06
     -3.806  0.2892E-01  0.4544E-03  0.5545E-03  0.6790E-03  0.8118E-02  0.6835E-05  0.2261E-01  0.9843E-05  0.2745E-04
     -3.631  0.1134E+00  0.1598E-02  0.6602E-02  0.3121E-02  0.2012E-01  0.9166E-04  0.2199E+00  0.1237E-03  0.4833E-03
     -3.456  0.1176E+00  0.5243E-02  0.1944E-01  0.7401E-02  0.4195E-01  0.4231E-03  0.2502E+00  0.5579E-03  0.1431E-02
     -3.281  0.1129E+00  0.1684E-01  0.3688E-01  0.1791E-01  0.6305E-01  0.5234E-02  0.2555E+00  0.4525E-02  0.2412E-02
     -3.107  0.1466E+00  0.5808E-01  0.6155E-01  0.5619E-01  0.9823E-01  0.1042E+00  0.2236E+00  0.7232E-01  0.5340E-02
     -2.932  0.1921E+00  0.6832E-01  0.8860E-01  0.6893E-01  0.1252E+00  0.1349E+00  0.1571E+00  0.1018E+00  0.2664E-01
     -2.757  0.1982E+00  0.8824E-01  0.1149E+00  0.8332E-01  0.1623E+00  0.2070E+00  0.1072E+00  0.1997E+00  0.6935E-01
     -2.582  0.1340E+00  0.8318E-01  0.1702E+00  0.7857E-01  0.3091E+00  0.2839E+00  0.1182E+00  0.2823E+00  0.1301E+00
     -2.407  0.1207E+00  0.6589E-01  0.2006E+00  0.3962E-01  0.2340E+00  0.2401E+00  0.1527E+00  0.2730E+00  0.5929E-01
     -2.233  0.1023E+00  0.6369E-01  0.9684E-01  0.3069E-01  0.2653E+00  0.2126E+00  0.1575E+00  0.2883E+00  0.3746E-01
     -2.058  0.6269E-01  0.3804E-01  0.1804E-01  0.1504E-01  0.1219E+00  0.3439E+00  0.3302E-01  0.3466E+00  0.2918E-01
     -1.883  0.9180E-01  0.7149E-01  0.1878E-01  0.1674E-01  0.1614E+00  0.1626E+00  0.4141E-01  0.1342E+00  0.5792E-01
     -1.708  0.8039E-01  0.7102E-01  0.2936E-01  0.2505E-01  0.1627E+00  0.7980E-01  0.4532E-01  0.8648E-01  0.6785E-01
     -1.533  0.8170E-01  0.4251E-01  0.4388E-01  0.3445E-01  0.1064E+00  0.9497E-01  0.3101E-01  0.9169E-01  0.8206E-01
     -1.359  0.8503E-01  0.3293E-01  0.4793E-01  0.3931E-01  0.1309E+00  0.9603E-01  0.2584E-01  0.6997E-01  0.8438E-01
     -1.184  0.9691E-01  0.3102E-01  0.4226E-01  0.4102E-01  0.1737E+00  0.1040E+00  0.4970E-01  0.7825E-01  0.8612E-01
     -1.009  0.1052E+00  0.6964E-01  0.6066E-01  0.9397E-01  0.1297E+00  0.1579E+00  0.5020E-01  0.1608E+00  0.8588E-01
     -0.834  0.1056E+00  0.8750E-01  0.7491E-01  0.1537E+00  0.9262E-01  0.9943E-01  0.3144E-01  0.1017E+00  0.5894E-01
     -0.659  0.7738E-01  0.6852E-01  0.5535E-01  0.9968E-01  0.1236E+00  0.8243E-01  0.2792E-01  0.9311E-01  0.5079E-01
     -0.485  0.5385E-01  0.8267E-01  0.4463E-01  0.7520E-01  0.1474E+00  0.6300E-01  0.2538E-01  0.5756E-01  0.5346E-01
     -0.310  0.3004E-01  0.8921E-01  0.4877E-01  0.1048E+00  0.9224E-01  0.4886E-01  0.1650E-01  0.4737E-01  0.1010E+00
     -0.135  0.3296E-01  0.8492E-01  0.1003E+00  0.1232E+00  0.9401E-01  0.6328E-01  0.1295E-01  0.6726E-01  0.1366E+00
      0.040  0.2301E-01  0.6987E-01  0.7784E-01  0.7952E-01  0.8437E-01  0.1079E+00  0.1173E-01  0.6659E-01  0.1680E+00
      0.215  0.1604E-01  0.9570E-01  0.6774E-01  0.1031E+00  0.4859E-01  0.7479E-01  0.9140E-02  0.7687E-01  0.1327E+00
      0.389  0.9539E-02  0.3462E-01  0.7441E-01  0.3752E-01  0.3040E-01  0.5829E-01  0.7830E-02  0.7006E-01  0.1027E+00
      0.564  0.9577E-02  0.2099E-01  0.5690E-01  0.2328E-01  0.3171E-01  0.5357E-01  0.9332E-02  0.7530E-01  0.5803E-01
      0.739  0.8283E-02  0.2334E-01  0.3141E-01  0.3474E-01  0.2008E-01  0.4472E-01  0.1714E-01  0.4885E-01  0.5065E-01
      0.914  0.6597E-02  0.3855E-01  0.2069E-01  0.4775E-01  0.1202E-01  0.3456E-01  0.1983E-01  0.1919E-01  0.4200E-01
      1.088  0.1914E-02  0.1350E-01  0.8397E-02  0.1172E-01  0.3777E-02  0.1560E-01  0.8485E-02  0.4843E-02  0.2716E-01
      1.263  0.4655E-03  0.5215E-02  0.2783E-02  0.2630E-02  0.1253E-02  0.6348E-02  0.3266E-02  0.1716E-02  0.1534E-01
      1.438  0.1146E-03  0.2537E-02  0.6699E-03  0.1120E-02  0.4612E-03  0.2348E-02  0.1046E-02  0.7000E-03  0.1041E-01
      1.613  0.3569E-04  0.7280E-03  0.6744E-04  0.4089E-03  0.9934E-04  0.4551E-03  0.1666E-03  0.1310E-03  0.7406E-02
      1.788  0.9206E-07  0.2174E-05  0.3944E-07  0.2037E-05  0.2157E-06  0.9392E-06  0.1306E-06  0.2297E-06  0.1168E-03
      1.962  0.0000E+00  0.0000E+00  0.0000E+00  0.0000E+00  0.0000E+00  0.0000E+00  0.0000E+00  0.0000E+00  0.0000E+00
      2.137  0.0000E+00  0.0000E+00  0.0000E+00  0.0000E+00  0.0000E+00  0.0000E+00  0.0000E+00  0.0000E+00  0.0000E+00
      2.312  0.0000E+00  0.0000E+00  0.0000E+00  0.0000E+00  0.0000E+00  0.0000E+00  0.0000E+00  0.0000E+00  0.0000E+00
      2.487  0.0000E+00  0.0000E+00  0.0000E+00  0.0000E+00  0.0000E+00  0.0000E+00  0.0000E+00  0.0000E+00  0.0000E+00
      2.662  0.0000E+00  0.0000E+00  0.0000E+00  0.0000E+00  0.0000E+00  0.0000E+00  0.0000E+00  0.0000E+00  0.0000E+00
      2.836  0.0000E+00  0.0000E+00  0.0000E+00  0.0000E+00  0.0000E+00  0.0000E+00  0.0000E+00  0.0000E+00  0.0000E+00
      3.011  0.2155E-23  0.2525E-40  0.4141E-41  0.3509E-40  0.1623E-17  0.6616E-38  0.6355E-18  0.6587E-38  0.6314E-41
      3.186  0.5241E-06  0.2675E-07  0.1199E-08  0.5827E-07  0.6568E-04  0.3134E-07  0.4106E-04  0.3914E-07  0.2359E-06
      3.361  0.4501E-02  0.5283E-03  0.3904E-03  0.8262E-03  0.1268E+00  0.1158E-01  0.1496E+00  0.1282E-01  0.1229E+00
      3.536  0.1157E-01  0.8279E-02  0.2921E-02  0.1110E-01  0.2933E+00  0.8532E-01  0.3440E+00  0.6537E-01  0.1153E+01
      3.710  0.1630E-01  0.7781E-02  0.5550E-02  0.1190E-01  0.3541E+00  0.1221E+00  0.4711E+00  0.9991E-01  0.1068E+01
      3.885  0.2235E-01  0.1497E-01  0.8258E-02  0.1971E-01  0.4110E+00  0.2005E+00  0.6032E+00  0.2066E+00  0.7656E+00
      4.060  0.2273E-01  0.2396E-01  0.1679E-01  0.2713E-01  0.3777E+00  0.5308E+00  0.7108E+00  0.6953E+00  0.5142E+00
      4.235  0.8320E-02  0.1066E-01  0.2489E-01  0.1258E-01  0.2560E+00  0.8246E+00  0.7739E+00  0.1005E+01  0.3041E+00
      4.409  0.8681E-02  0.1585E-01  0.2646E-01  0.1389E-01  0.3380E+00  0.9655E+00  0.1260E+01  0.1067E+01  0.2509E+00
      4.584  0.1587E-01  0.2136E-01  0.1684E-01  0.2516E-01  0.4177E+00  0.4836E+00  0.2239E+01  0.4748E+00  0.3038E+00
      4.759  0.4373E-02  0.9619E-02  0.5140E-02  0.9601E-02  0.7354E-01  0.4783E+00  0.2879E+00  0.3595E+00  0.5177E+00
      4.934  0.2850E-02  0.6403E-02  0.3088E-02  0.8478E-02  0.1227E-01  0.4683E+00  0.4305E-01  0.4192E+00  0.9153E+00
      5.109  0.3000E-02  0.5552E-02  0.1229E-02  0.1143E-01  0.1751E-01  0.2587E+00  0.1706E-01  0.3362E+00  0.1393E+01
      5.283  0.1483E-02  0.4473E-02  0.1270E-03  0.8493E-02  0.2115E-01  0.4034E-01  0.8150E-02  0.7028E-01  0.1208E+01
      5.458  0.9520E-04  0.4760E-03  0.1009E-04  0.2396E-02  0.1407E-02  0.1405E-02  0.1692E-03  0.1196E-02  0.4084E+00
      5.633  0.4309E-03  0.2481E-03  0.6066E-04  0.1040E-02  0.2603E-01  0.2649E-03  0.2959E-02  0.1318E-03  0.2407E+00
      5.808  0.1220E-02  0.4048E-03  0.5351E-03  0.3051E-03  0.7959E-01  0.1798E-03  0.9145E-02  0.1199E-03  0.1025E+00
      5.983  0.2917E-02  0.1066E-02  0.1438E-02  0.3000E-03  0.1584E+00  0.8064E-03  0.1870E-01  0.5183E-03  0.2795E-02
      6.157  0.2885E-01  0.3692E-02  0.5735E-02  0.2114E-02  0.9021E+00  0.1110E+00  0.1224E+00  0.4881E-01  0.2718E-02
      6.332  0.1615E-01  0.7335E-02  0.1435E-01  0.5379E-02  0.8751E+00  0.2789E+00  0.1430E+00  0.1163E+00  0.7953E-03
      6.507  0.9727E-02  0.1220E-01  0.2520E-01  0.5900E-02  0.6669E+00  0.3223E+00  0.1360E+00  0.1404E+00  0.8153E-03
      6.682  0.8204E-02  0.1490E-01  0.3890E-01  0.4162E-02  0.3654E+00  0.3073E+00  0.1208E+00  0.1636E+00  0.4364E-03
      6.857  0.1575E-01  0.1816E-01  0.5916E-01  0.3834E-02  0.3075E+00  0.2754E+00  0.1223E+00  0.1665E+00  0.2746E-03
      7.031  0.3561E-01  0.1777E-01  0.5474E-01  0.3047E-02  0.3426E+00  0.2028E+00  0.2116E+00  0.1320E+00  0.4599E-03
      7.206  0.2112E-01  0.9994E-02  0.2289E-01  0.6283E-02  0.6681E-01  0.3382E+00  0.1531E+00  0.3355E+00  0.1952E-03
      7.381  0.1084E-01  0.1299E-01  0.2520E-01  0.2480E-01  0.1432E+00  0.7497E+00  0.9067E-01  0.8194E+00  0.1385E-02
      7.556  0.8476E-02  0.1292E-01  0.2480E-01  0.2228E-01  0.2639E+00  0.7662E+00  0.1307E+00  0.8744E+00  0.1696E-02
      7.731  0.5147E-02  0.1058E-01  0.1402E-01  0.1404E-01  0.3014E+00  0.6438E+00  0.2031E+00  0.6975E+00  0.5284E-03
      7.905  0.3343E-02  0.7640E-02  0.9879E-02  0.8441E-02  0.3780E+00  0.1723E+00  0.2342E+00  0.2512E+00  0.1648E-03
      8.080  0.3376E-02  0.6701E-02  0.1113E-01  0.6016E-02  0.6556E+00  0.6652E-01  0.3676E+00  0.1677E+00  0.8001E-04
      8.255  0.4135E-02  0.2914E-02  0.5730E-02  0.2088E-02  0.5034E+00  0.3262E-01  0.2610E+00  0.8607E-01  0.2415E-04
      8.430  0.1933E-02  0.9132E-03  0.1724E-02  0.4731E-03  0.6091E-01  0.1021E-02  0.9510E-01  0.4081E-02  0.2026E-05