    6    6    1    1
  0.1075314E+02  0.4661790E-09  0.4661790E-09  0.2968801E-09  0.5000000E-15
  1.000000000000000E-004
  CAR 
 VaspCalc                                
     32    432     48
 
  0.0000000E+00  0.0000000E+00  0.0000000E+00  0.1932367E-03
    1      -16.454244   1.000000
    2      -15.316754   1.000000
    3      -14.795414   1.000000
    4      -14.795414   1.000000
    5       -4.003307   1.000000
    6       -3.569029   1.000000
    7       -3.077389   1.000000
    8       -2.081989   1.000000
    9       -2.081989   1.000000
   10       -0.892123   1.000000
   11       -0.892123   1.000000
   12       -0.255644   1.000000
   13        0.984944   1.000000
   14        1.218663   1.000000
   15        1.218663   1.000000
   16        1.585864   1.000000
   17        3.233014   0.000000
   18        3.511757   0.000000
   19        3.781578   0.000000
   20        3.841679   0.000000
   21        3.841679   0.000000
   22        5.523540   0.000000
   23        5.795774   0.000000
   24        7.760238   0.000000
   25        7.760238   0.000000
   26        8.652549   0.000000
   27        9.315006   0.000000
   28       12.710269   0.000000
   29       12.710269   0.000000
   30       15.884065   0.000000
   31       17.144277   0.000000
   32       17.810009   0.000000
   33       18.522031   0.000000
   34       18.522031   0.000000
   35       19.012035   0.000000
   36       19.248459   0.000000
   37       21.384132   0.000000
   38       22.197597   0.000000
   39       24.494859   0.000000
   40       24.494859   0.000000
   41       25.503644   0.000000
   42       25.503644   0.000000
   43       26.578757   0.000000
   44       26.647971   0.000000
   45       27.264068   0.000000
   46       27.790396   0.000000
   47       27.790396   0.000000
   48       28.256100   0.000000
 
  0.6666667E-01  0.0000000E+00  0.0000000E+00  0.7729469E-03
    1      -16.440699   1.000000
    2      -15.320126   1.000000
    3      -14.807722   1.000000
    4      -14.799061   1.000000
    5       -3.974612   1.000000
    6       -3.552139   1.000000
    7       -3.050816   1.000000
    8       -2.080256   1.000000
    9       -2.078886   1.000000
   10       -0.919642   1.000000
   11       -0.897979   1.000000
   12       -0.253917   1.000000
   13        0.954898   1.000000
   14        1.127059   1.000000
   15        1.174389   1.000000
   16        1.577516   1.000000
   17        3.259711   0.000000
   18        3.550751   0.000000
   19        3.815748   0.000000
   20        3.858568   0.000000
   21        3.867406   0.000000
   22        5.555439   0.000000
   23        5.775511   0.000000
   24        7.745961   0.000000
   25        7.749553   0.000000
   26        8.625885   0.000000
   27        9.369032   0.000000
   28       12.701113   0.000000
   29       12.743939   0.000000
   30       15.888207   0.000000
   31       17.063899   0.000000
   32       17.774629   0.000000
   33       18.562751   0.000000
   34       18.578416   0.000000
   35       19.046777   0.000000
   36       19.221555   0.000000
   37       21.422360   0.000000
   38       22.164665   0.000000
   39       24.317596   0.000000
   40       24.505832   0.000000
   41       25.162156   0.000000
   42       25.539271   0.000000
   43       26.380146   0.000000
   44       26.788832   0.000000
   45       27.228770   0.000000
   46       27.818055   0.000000
   47       28.087557   0.000000
   48       28.515413   0.000000
 
  0.1333333E+00  0.0000000E+00  0.0000000E+00  0.7729469E-03
    1      -16.400870   1.000000
    2      -15.332728   1.000000
    3      -14.841254   1.000000
    4      -14.809790   1.000000
    5       -3.892353   1.000000
    6       -3.503268   1.000000
    7       -2.969770   1.000000
    8       -2.075189   1.000000
    9       -2.070245   1.000000
   10       -0.996986   1.000000
   11       -0.918705   1.000000
   12       -0.247345   1.000000
   13        0.870225   1.000000
   14        0.884555   1.000000
   15        1.062914   1.000000
   16        1.538669   1.000000
   17        3.332010   0.000000
   18        3.647353   0.000000
   19        3.907153   0.000000
   20        3.910163   0.000000
   21        3.938104   0.000000
   22        5.647167   0.000000
   23        5.721814   0.000000
   24        7.705546   0.000000
   25        7.718557   0.000000
   26        8.542604   0.000000
   27        9.528653   0.000000
   28       12.667191   0.000000
   29       12.845346   0.000000
   30       15.902643   0.000000
   31       16.854587   0.000000
   32       17.694088   0.000000
   33       18.647957   0.000000
   34       18.723556   0.000000
   35       19.145852   0.000000
   36       19.149480   0.000000
   37       21.535856   0.000000
   38       22.065851   0.000000
   39       23.897844   0.000000
   40       24.528658   0.000000
   41       24.536406   0.000000
   42       25.641687   0.000000
   43       25.889057   0.000000
   44       27.015879   0.000000
   45       27.246641   0.000000
   46       27.901219   0.000000
   47       28.593155   0.000000
   48       28.664546   0.000000
 
  0.2000000E+00  0.0000000E+00  0.0000000E+00  0.7729469E-03
    1      -16.335997   1.000000
    2      -15.361302   1.000000
    3      -14.886025   1.000000
    4      -14.827071   1.000000
    5       -3.767766   1.000000
    6       -3.428146   1.000000
    7       -2.830555   1.000000
    8       -2.067266   1.000000
    9       -2.057937   1.000000
   10       -1.109835   1.000000
   11       -0.962685   1.000000
   12       -0.232097   1.000000
   13        0.540478   1.000000
   14        0.744691   1.000000
   15        0.931631   1.000000
   16        1.461924   1.000000
   17        3.433163   0.000000
   18        3.759034   0.000000
   19        3.981316   0.000000
   20        4.037209   0.000000
   21        4.047565   0.000000
   22        5.609782   0.000000
   23        5.829780   0.000000
   24        7.645792   0.000000
   25        7.670680   0.000000
   26        8.400186   0.000000
   27        9.781654   0.000000
   28       12.592020   0.000000
   29       13.014967   0.000000
   30       15.920910   0.000000
   31       16.583716   0.000000
   32       17.602697   0.000000
   33       18.715972   0.000000
   34       18.914017   0.000000
   35       19.042213   0.000000
   36       19.315181   0.000000
   37       21.721186   0.000000
   38       21.902464   0.000000
   39       23.297893   0.000000
   40       24.042361   0.000000
   41       24.580459   0.000000
   42       25.373036   0.000000
   43       25.792717   0.000000
   44       26.726943   0.000000
   45       27.747637   0.000000
   46       28.038864   0.000000
   47       28.064797   0.000000
   48       29.315449   0.000000
 
  0.2666667E+00  0.0000000E+00  0.0000000E+00  0.7729469E-03
    1      -16.248070   1.000000
    2      -15.415370   1.000000
    3      -14.926731   1.000000
    4      -14.849311   1.000000
    5       -3.618081   1.000000
    6       -3.337468   1.000000
    7       -2.628474   1.000000
    8       -2.057263   1.000000
    9       -2.044657   1.000000
   10       -1.237384   1.000000
   11       -1.038565   1.000000
   12       -0.202834   1.000000
   13        0.132725   1.000000
   14        0.594803   1.000000
   15        0.826853   1.000000
   16        1.354438   1.000000
   17        3.546460   0.000000
   18        3.850395   0.000000
   19        4.071420   0.000000
   20        4.143848   0.000000
   21        4.212314   0.000000
   22        5.482436   0.000000
   23        6.062638   0.000000
   24        7.577608   0.000000
   25        7.611864   0.000000
   26        8.202224   0.000000
   27       10.106141   0.000000
   28       12.456937   0.000000
   29       13.252088   0.000000
   30       15.856508   0.000000
   31       16.386284   0.000000
   32       17.511304   0.000000
   33       18.724965   0.000000
   34       18.884742   0.000000
   35       19.181006   0.000000
   36       19.536640   0.000000
   37       21.680258   0.000000
   38       21.972757   0.000000
   39       22.591200   0.000000
   40       23.824562   0.000000
   41       24.627917   0.000000
   42       24.869243   0.000000
   43       25.943847   0.000000
   44       26.442819   0.000000
   45       27.623576   0.000000
   46       28.160964   0.000000
   47       28.231550   0.000000
   48       29.990336   0.000000
 
  0.3333333E+00  0.0000000E+00  0.0000000E+00  0.7729469E-03
    1      -16.139948   1.000000
    2      -15.500991   1.000000
    3      -14.950878   1.000000
    4      -14.874718   1.000000
    5       -3.463480   1.000000
    6       -3.248426   1.000000
    7       -2.361170   1.000000
    8       -2.046357   1.000000
    9       -2.033307   1.000000
   10       -1.354341   1.000000
   11       -1.145787   1.000000
   12       -0.309381   1.000000
   13       -0.154103   1.000000
   14        0.435863   1.000000
   15        0.777848   1.000000
   16        1.227317   1.000000
   17        3.658335   0.000000
   18        3.904289   0.000000
   19        4.164941   0.000000
   20        4.237519   0.000000
   21        4.393660   0.000000
   22        5.328652   0.000000
   23        6.350864   0.000000
   24        7.513897   0.000000
   25        7.550089   0.000000
   26        7.955157   0.000000
   27       10.477107   0.000000
   28       12.250669   0.000000
   29       13.553019   0.000000
   30       15.567918   0.000000
   31       16.432662   0.000000
   32       17.409933   0.000000
   33       18.671430   0.000000
   34       18.753038   0.000000
   35       19.468280   0.000000
   36       19.804523   0.000000
   37       21.408409   0.000000
   38       21.897882   0.000000
   39       22.282890   0.000000
   40       23.821042   0.000000
   41       24.384023   0.000000
   42       24.658053   0.000000
   43       25.993764   0.000000
   44       26.190636   0.000000
   45       27.394252   0.000000
   46       28.366401   0.000000
   47       28.480023   0.000000
   48       30.589254   0.000000
 
  0.4000000E+00  0.0000000E+00  0.0000000E+00  0.7729469E-03
    1      -16.016368   1.000000
    2      -15.614604   1.000000
    3      -14.955713   1.000000
    4      -14.901151   1.000000
    5       -3.324318   1.000000
    6       -3.184947   1.000000
    7       -2.036099   1.000000
    8       -2.032853   1.000000
    9       -2.026214   1.000000
   10       -1.433437   1.000000
   11       -1.266424   1.000000
   12       -0.761783   1.000000
   13       -0.081730   1.000000
   14        0.280402   1.000000
   15        0.791775   1.000000
   16        1.093047   1.000000
   17        3.758493   0.000000
   18        3.917698   0.000000
   19        4.247540   0.000000
   20        4.301334   0.000000
   21        4.584251   0.000000
   22        5.155958   0.000000
   23        6.674423   0.000000
   24        7.467536   0.000000
   25        7.495422   0.000000
   26        7.667325   0.000000
   27       10.870677   0.000000
   28       11.974083   0.000000
   29       13.909511   0.000000
   30       15.165333   0.000000
   31       16.620935   0.000000
   32       17.274870   0.000000
   33       18.594293   0.000000
   34       18.638602   0.000000
   35       19.812945   0.000000
   36       20.107860   0.000000
   37       21.099933   0.000000
   38       21.264478   0.000000
   39       22.642169   0.000000
   40       23.916749   0.000000
   41       23.979018   0.000000
   42       24.626438   0.000000
   43       25.896490   0.000000
   44       25.985238   0.000000
   45       27.464032   0.000000
   46       28.299242   0.000000
   47       28.786599   0.000000
   48       30.101123   0.000000
 
  0.4666667E+00  0.0000000E+00  0.0000000E+00  0.7729469E-03
    1      -15.882456   1.000000
    2      -15.745404   1.000000
    3      -14.945565   1.000000
    4      -14.925875   1.000000
    5       -3.220841   1.000000
    6       -3.171772   1.000000
    7       -2.028270   1.000000
    8       -2.024585   1.000000
    9       -1.660822   1.000000
   10       -1.459902   1.000000
   11       -1.361446   1.000000
   12       -1.195727   1.000000
   13        0.016063   1.000000
   14        0.138142   1.000000
   15        0.859553   1.000000
   16        0.965427   1.000000
   17        3.839213   0.000000
   18        3.894207   0.000000
   19        4.304680   0.000000
   20        4.324549   0.000000
   21        4.778345   0.000000
   22        4.970670   0.000000
   23        7.013209   0.000000
   24        7.349232   0.000000
   25        7.447999   0.000000
   26        7.458479   0.000000
   27       11.265082   0.000000
   28       11.639615   0.000000
   29       14.309117   0.000000
   30       14.734775   0.000000
   31       16.856654   0.000000
   32       17.087321   0.000000
   33       18.548480   0.000000
   34       18.564288   0.000000
   35       20.222772   0.000000
   36       20.434182   0.000000
   37       20.705310   0.000000
   38       20.769850   0.000000
   39       23.040306   0.000000
   40       23.467604   0.000000
   41       24.229504   0.000000
   42       24.477784   0.000000
   43       25.810604   0.000000
   44       25.846768   0.000000
   45       27.726341   0.000000
   46       28.042183   0.000000
   47       29.155486   0.000000
   48       29.592381   0.000000
 
  0.6666667E-01  0.6666667E-01  0.0000000E+00  0.7729469E-03
    1      -16.427501   1.000000
    2      -15.323946   1.000000
    3      -14.821070   1.000000
    4      -14.800785   1.000000
    5       -3.951346   1.000000
    6       -3.531429   1.000000
    7       -3.024739   1.000000
    8       -2.084656   1.000000
    9       -2.070213   1.000000
   10       -0.965622   1.000000
   11       -0.883460   1.000000
   12       -0.251889   1.000000
   13        0.927728   1.000000
   14        1.031348   1.000000
   15        1.145925   1.000000
   16        1.571108   1.000000
   17        3.269232   0.000000
   18        3.593685   0.000000
   19        3.842396   0.000000
   20        3.849548   0.000000
   21        3.922307   0.000000
   22        5.586330   0.000000
   23        5.755962   0.000000
   24        7.712365   0.000000
   25        7.759853   0.000000
   26        8.598333   0.000000
   27        9.423817   0.000000
   28       12.731744   0.000000
   29       12.737659   0.000000
   30       15.892425   0.000000
   31       16.991792   0.000000
   32       17.746432   0.000000
   33       18.489030   0.000000
   34       18.732777   0.000000
   35       19.080572   0.000000
   36       19.195649   0.000000
   37       21.460356   0.000000
   38       22.131980   0.000000
   39       24.275175   0.000000
   40       24.370107   0.000000
   41       25.101998   0.000000
   42       25.328272   0.000000
   43       26.196192   0.000000
   44       26.968688   0.000000
   45       27.257892   0.000000
   46       27.810379   0.000000
   47       28.336139   0.000000
   48       28.706871   0.000000
 
  0.1333333E+00  0.6666667E-01  0.0000000E+00  0.1545894E-02
    1      -16.388526   1.000000
    2      -15.337374   1.000000
    3      -14.853430   1.000000
    4      -14.810238   1.000000
    5       -3.884765   1.000000
    6       -3.472053   1.000000
    7       -2.945163   1.000000
    8       -2.084829   1.000000
    9       -2.057982   1.000000
   10       -1.053942   1.000000
   11       -0.887149   1.000000
   12       -0.244379   1.000000
   13        0.807989   1.000000
   14        0.850530   1.000000
   15        1.042409   1.000000
   16        1.534937   1.000000
   17        3.312401   0.000000
   18        3.690832   0.000000
   19        3.863344   0.000000
   20        3.942900   0.000000
   21        4.010112   0.000000
   22        5.671845   0.000000
   23        5.707595   0.000000
   24        7.658493   0.000000
   25        7.747278   0.000000
   26        8.513698   0.000000
   27        9.584496   0.000000
   28       12.700095   0.000000
   29       12.836624   0.000000
   30       15.906701   0.000000
   31       16.799031   0.000000
   32       17.670446   0.000000
   33       18.494865   0.000000
   34       18.928399   0.000000
   35       19.127209   0.000000
   36       19.180505   0.000000
   37       21.573235   0.000000
   38       22.034352   0.000000
   39       23.906962   0.000000
   40       24.258960   0.000000
   41       24.636994   0.000000
   42       25.374615   0.000000
   43       25.791610   0.000000
   44       27.112875   0.000000
   45       27.400767   0.000000
   46       27.871606   0.000000
   47       28.617831   0.000000
   48       28.848178   0.000000
 
  0.2000000E+00  0.6666667E-01  0.0000000E+00  0.1545894E-02
    1      -16.324880   1.000000
    2      -15.367039   1.000000
    3      -14.894910   1.000000
    4      -14.826917   1.000000
    5       -3.783364   1.000000
    6       -3.383645   1.000000
    7       -2.808239   1.000000
    8       -2.080268   1.000000
    9       -2.044901   1.000000
   10       -1.166919   1.000000
   11       -0.920256   1.000000
   12       -0.227489   1.000000
   13        0.499088   1.000000
   14        0.734453   1.000000
   15        0.906739   1.000000
   16        1.457240   1.000000
   17        3.395492   0.000000
   18        3.793712   0.000000
   19        3.920672   0.000000
   20        4.078501   0.000000
   21        4.111318   0.000000
   22        5.600567   0.000000
   23        5.847981   0.000000
   24        7.594018   0.000000
   25        7.712079   0.000000
   26        8.370905   0.000000
   27        9.837245   0.000000
   28       12.624676   0.000000
   29       13.006800   0.000000
   30       15.925784   0.000000
   31       16.541378   0.000000
   32       17.573768   0.000000
   33       18.539223   0.000000
   34       18.978733   0.000000
   35       19.178350   0.000000
   36       19.341825   0.000000
   37       21.757469   0.000000
   38       21.873812   0.000000
   39       23.327125   0.000000
   40       23.930120   0.000000
   41       24.531548   0.000000
   42       25.324008   0.000000
   43       25.492131   0.000000
   44       26.857660   0.000000
   45       27.888239   0.000000
   46       28.002284   0.000000
   47       28.166714   0.000000
   48       29.456998   0.000000
 
  0.2666667E+00  0.6666667E-01  0.0000000E+00  0.1545894E-02
    1      -16.238646   1.000000
    2      -15.421926   1.000000
    3      -14.931894   1.000000
    4      -14.848781   1.000000
    5       -3.658266   1.000000
    6       -3.284891   1.000000
    7       -2.609467   1.000000
    8       -2.071666   1.000000
    9       -2.033441   1.000000
   10       -1.282684   1.000000
   11       -0.992545   1.000000
   12       -0.195954   1.000000
   13        0.129122   1.000000
   14        0.593628   1.000000
   15        0.793777   1.000000
   16        1.345513   1.000000
   17        3.503726   0.000000
   18        3.871867   0.000000
   19        4.004415   0.000000
   20        4.207842   0.000000
   21        4.240458   0.000000
   22        5.477039   0.000000
   23        6.074828   0.000000
   24        7.530101   0.000000
   25        7.659258   0.000000
   26        8.173619   0.000000
   27       10.159880   0.000000
   28       12.489743   0.000000
   29       13.245166   0.000000
   30       15.861250   0.000000
   31       16.351557   0.000000
   32       17.473157   0.000000
   33       18.567725   0.000000
   34       18.854132   0.000000
   35       19.392255   0.000000
   36       19.557677   0.000000
   37       21.655420   0.000000
   38       22.007435   0.000000
   39       22.629270   0.000000
   40       23.742082   0.000000
   41       24.560045   0.000000
   42       24.848914   0.000000
   43       25.604649   0.000000
   44       26.568650   0.000000
   45       27.794020   0.000000
   46       28.192956   0.000000
   47       28.312313   0.000000
   48       30.103142   0.000000
 
  0.3333333E+00  0.6666667E-01  0.0000000E+00  0.1545894E-02
    1      -16.132810   1.000000
    2      -15.507144   1.000000
    3      -14.952922   1.000000
    4      -14.873976   1.000000
    5       -3.521143   1.000000
    6       -3.202293   1.000000
    7       -2.348992   1.000000
    8       -2.060260   1.000000
    9       -2.025928   1.000000
   10       -1.370770   1.000000
   11       -1.109140   1.000000
   12       -0.277201   1.000000
   13       -0.144620   1.000000
   14        0.441878   1.000000
   15        0.739714   1.000000
   16        1.212469   1.000000
   17        3.618593   0.000000
   18        3.912481   0.000000
   19        4.101159   0.000000
   20        4.282257   0.000000
   21        4.418142   0.000000
   22        5.328553   0.000000
   23        6.355039   0.000000
   24        7.478800   0.000000
   25        7.596511   0.000000
   26        7.928508   0.000000
   27       10.527751   0.000000
   28       12.284485   0.000000
   29       13.547909   0.000000
   30       15.569110   0.000000
   31       16.402222   0.000000
   32       17.363001   0.000000
   33       18.552893   0.000000
   34       18.722149   0.000000
   35       19.642601   0.000000
   36       19.819024   0.000000
   37       21.388617   0.000000
   38       21.947182   0.000000
   39       22.315282   0.000000
   40       23.748822   0.000000
   41       24.381996   0.000000
   42       24.582555   0.000000
   43       25.670141   0.000000
   44       26.259252   0.000000
   45       27.621491   0.000000
   46       28.441469   0.000000
   47       28.519401   0.000000
   48       30.606064   0.000000
 
  0.4000000E+00  0.6666667E-01  0.0000000E+00  0.1545894E-02
    1      -16.011921   1.000000
    2      -15.618825   1.000000
    3      -14.955996   1.000000
    4      -14.900285   1.000000
    5       -3.384924   1.000000
    6       -3.163604   1.000000
    7       -2.047750   1.000000
    8       -2.038409   1.000000
    9       -2.023886   1.000000
   10       -1.394998   1.000000
   11       -1.263016   1.000000
   12       -0.691308   1.000000
   13       -0.069862   1.000000
   14        0.291196   1.000000
   15        0.753761   1.000000
   16        1.071600   1.000000
   17        3.725689   0.000000
   18        3.913923   0.000000
   19        4.195665   0.000000
   20        4.320953   0.000000
   21        4.604527   0.000000
   22        5.161378   0.000000
   23        6.670270   0.000000
   24        7.450813   0.000000
   25        7.533714   0.000000
   26        7.644127   0.000000
   27       10.917471   0.000000
   28       12.009932   0.000000
   29       13.906524   0.000000
   30       15.166017   0.000000
   31       16.585907   0.000000
   32       17.223134   0.000000
   33       18.512710   0.000000
   34       18.606269   0.000000
   35       19.949051   0.000000
   36       20.115327   0.000000
   37       21.086155   0.000000
   38       21.328042   0.000000
   39       22.671426   0.000000
   40       23.910291   0.000000
   41       23.927045   0.000000
   42       24.546714   0.000000
   43       25.678679   0.000000
   44       25.963860   0.000000
   45       27.677560   0.000000
   46       28.443725   0.000000
   47       28.748834   0.000000
   48       30.064058   0.000000
 
  0.4666667E+00  0.6666667E-01  0.0000000E+00  0.1545894E-02
    1      -15.880837   1.000000
    2      -15.746913   1.000000
    3      -14.944904   1.000000
    4      -14.924949   1.000000
    5       -3.266225   1.000000
    6       -3.186091   1.000000
    7       -2.036162   1.000000
    8       -2.027614   1.000000
    9       -1.712884   1.000000
   10       -1.450658   1.000000
   11       -1.313069   1.000000
   12       -1.067742   1.000000
   13        0.029379   1.000000
   14        0.151297   1.000000
   15        0.825516   1.000000
   16        0.937335   1.000000
   17        3.815121   0.000000
   18        3.879782   0.000000
   19        4.272286   0.000000
   20        4.317098   0.000000
   21        4.794040   0.000000
   22        4.981400   0.000000
   23        7.001367   0.000000
   24        7.330941   0.000000
   25        7.452197   0.000000
   26        7.482160   0.000000
   27       11.307808   0.000000
   28       11.678509   0.000000
   29       14.308088   0.000000
   30       14.735046   0.000000
   31       16.813709   0.000000
   32       17.037375   0.000000
   33       18.493841   0.000000
   34       18.525234   0.000000
   35       20.327974   0.000000
   36       20.434462   0.000000
   37       20.762950   0.000000
   38       20.787007   0.000000
   39       23.065220   0.000000
   40       23.486475   0.000000
   41       24.159130   0.000000
   42       24.401354   0.000000
   43       25.683361   0.000000
   44       25.762369   0.000000
   45       27.898504   0.000000
   46       28.188950   0.000000
   47       29.118864   0.000000
   48       29.555972   0.000000
 
  0.1333333E+00  0.1333333E+00  0.0000000E+00  0.7729469E-03
    1      -16.351845   1.000000
    2      -15.353320   1.000000
    3      -14.882139   1.000000
    4      -14.816250   1.000000
    5       -3.857847   1.000000
    6       -3.389462   1.000000
    7       -2.870071   1.000000
    8       -2.092190   1.000000
    9       -2.043371   1.000000
   10       -1.156216   1.000000
   11       -0.857026   1.000000
   12       -0.233973   1.000000
   13        0.623966   1.000000
   14        0.793078   1.000000
   15        0.962228   1.000000
   16        1.507688   1.000000
   17        3.297877   0.000000
   18        3.777325   0.000000
   19        3.844462   0.000000
   20        4.033227   0.000000
   21        4.108665   0.000000
   22        5.649502   0.000000
   23        5.764422   0.000000
   24        7.595123   0.000000
   25        7.758640   0.000000
   26        8.426981   0.000000
   27        9.746130   0.000000
   28       12.776257   0.000000
   29       12.827626   0.000000
   30       15.921565   0.000000
   31       16.642058   0.000000
   32       17.597728   0.000000
   33       18.390587   0.000000
   34       19.010634   0.000000
   35       19.242080   0.000000
   36       19.272184   0.000000
   37       21.684152   0.000000
   38       21.940958   0.000000
   39       23.855718   0.000000
   40       23.949161   0.000000
   41       24.372688   0.000000
   42       25.154733   0.000000
   43       25.533445   0.000000
   44       27.085416   0.000000
   45       27.793214   0.000000
   46       27.870498   0.000000
   47       28.530236   0.000000
   48       29.274358   0.000000
 
  0.2000000E+00  0.1333333E+00  0.0000000E+00  0.1545894E-02
    1      -16.291925   1.000000
    2      -15.386033   1.000000
    3      -14.915861   1.000000
    4      -14.829735   1.000000
    5       -3.805148   1.000000
    6       -3.283526   1.000000
    7       -2.740432   1.000000
    8       -2.094175   1.000000
    9       -2.031185   1.000000
   10       -1.265666   1.000000
   11       -0.856925   1.000000
   12       -0.212191   1.000000
   13        0.381728   1.000000
   14        0.702779   1.000000
   15        0.833463   1.000000
   16        1.435727   1.000000
   17        3.331634   0.000000
   18        3.856257   0.000000
   19        3.866013   0.000000
   20        4.163928   0.000000
   21        4.204092   0.000000
   22        5.568104   0.000000
   23        5.910252   0.000000
   24        7.531734   0.000000
   25        7.745736   0.000000
   26        8.284067   0.000000
   27        9.996888   0.000000
   28       12.717118   0.000000
   29       12.983061   0.000000
   30       15.943863   0.000000
   31       16.415923   0.000000
   32       17.489218   0.000000
   33       18.353777   0.000000
   34       18.902874   0.000000
   35       19.420808   0.000000
   36       19.509052   0.000000
   37       21.788422   0.000000
   38       21.865105   0.000000
   39       23.403152   0.000000
   40       23.688202   0.000000
   41       24.214530   0.000000
   42       25.171427   0.000000
   43       25.181082   0.000000
   44       26.883197   0.000000
   45       27.954304   0.000000
   46       28.228196   0.000000
   47       28.332843   0.000000
   48       29.812217   0.000000
 
  0.2666667E+00  0.1333333E+00  0.0000000E+00  0.1545894E-02
    1      -16.210890   1.000000
    2      -15.442598   1.000000
    3      -14.943429   1.000000
    4      -14.849378   1.000000
    5       -3.724526   1.000000
    6       -3.191235   1.000000
    7       -2.552119   1.000000
    8       -2.090480   1.000000
    9       -2.023914   1.000000
   10       -1.351579   1.000000
   11       -0.905503   1.000000
   12       -0.174130   1.000000
   13        0.101556   1.000000
   14        0.587380   1.000000
   15        0.705502   1.000000
   16        1.319175   1.000000
   17        3.413915   0.000000
   18        3.905143   0.000000
   19        3.924208   0.000000
   20        4.279115   0.000000
   21        4.318644   0.000000
   22        5.458559   0.000000
   23        6.116296   0.000000
   24        7.480306   0.000000
   25        7.710202   0.000000
   26        8.089776   0.000000
   27       10.313775   0.000000
   28       12.583709   0.000000
   29       13.224392   0.000000
   30       15.875601   0.000000
   31       16.250663   0.000000
   32       17.367444   0.000000
   33       18.345839   0.000000
   34       18.766881   0.000000
   35       19.620199   0.000000
   36       19.766136   0.000000
   37       21.581878   0.000000
   38       22.110099   0.000000
   39       22.735006   0.000000
   40       23.541941   0.000000
   41       24.261817   0.000000
   42       24.785216   0.000000
   43       25.229694   0.000000
   44       26.584341   0.000000
   45       28.055697   0.000000
   46       28.118331   0.000000
   47       28.721593   0.000000
   48       30.400326   0.000000
 
  0.3333333E+00  0.1333333E+00  0.0000000E+00  0.1545894E-02
    1      -16.111847   1.000000
    2      -15.525832   1.000000