Automatically generated mesh
     432
Reciprocal lattice
    0.00000000000000    0.00000000000000    0.00000000000000             1
    0.06666666666667    0.00000000000000    0.00000000000000             4
    0.13333333333333    0.00000000000000    0.00000000000000             4
    0.20000000000000    0.00000000000000    0.00000000000000             4
    0.26666666666667    0.00000000000000    0.00000000000000             4
    0.33333333333333    0.00000000000000    0.00000000000000             4
    0.40000000000000    0.00000000000000    0.00000000000000             4
    0.46666666666667    0.00000000000000    0.00000000000000             4
    0.06666666666667    0.06666666666667    0.00000000000000             4
    0.13333333333333    0.06666666666667    0.00000000000000             8
    0.20000000000000    0.06666666666667    0.00000000000000             8
    0.26666666666667    0.06666666666667    0.00000000000000             8
    0.33333333333333    0.06666666666667    0.00000000000000             8
    0.40000000000000    0.06666666666667    0.00000000000000             8
    0.46666666666667    0.06666666666667    0.00000000000000             8
    0.13333333333333    0.13333333333333    0.00000000000000             4
    0.20000000000000    0.13333333333333    0.00000000000000             8
    0.26666666666667    0.13333333333333    0.00000000000000             8
    0.33333333333333    0.13333333333333    0.00000000000000             8
    0.40000000000000    0.13333333333333    0.00000000000000             8
    0.46666666666667    0.13333333333333    0.00000000000000             8
    0.20000000000000    0.20000000000000    0.00000000000000             4
    0.26666666666667    0.20000000000000    0.00000000000000             8
    0.33333333333333    0.20000000000000    0.00000000000000             8
    0.40000000000000    0.20000000000000    0.00000000000000             8
    0.46666666666667    0.20000000000000    0.00000000000000             8
    0.26666666666667    0.26666666666667    0.00000000000000             4
    0.33333333333333    0.26666666666667    0.00000000000000             8
    0.40000000000000    0.26666666666667    0.00000000000000             8
    0.46666666666667    0.26666666666667    0.00000000000000             8
    0.33333333333333    0.33333333333333    0.00000000000000             4
    0.40000000000000    0.33333333333333    0.00000000000000             8
    0.46666666666667    0.33333333333333    0.00000000000000             8
    0.40000000000000    0.40000000000000    0.00000000000000             4
    0.46666666666667    0.40000000000000    0.00000000000000             8
    0.46666666666667    0.46666666666667    0.00000000000000             4
    0.00000000000000    0.00000000000000    0.04347826086957             2
    0.06666666666667    0.00000000000000    0.04347826086957             8
    0.13333333333333    0.00000000000000    0.04347826086957             8
    0.20000000000000    0.00000000000000    0.04347826086957             8
    0.26666666666667    0.00000000000000    0.04347826086957             8
    0.33333333333333    0.00000000000000    0.04347826086957             8
    0.40000000000000    0.00000000000000    0.04347826086957             8
    0.46666666666667    0.00000000000000    0.04347826086957             8
    0.06666666666667    0.06666666666667    0.04347826086957             8
    0.13333333333333    0.06666666666667    0.04347826086957            16
    0.20000000000000    0.06666666666667    0.04347826086957            16
    0.26666666666667    0.06666666666667    0.04347826086957            16
    0.33333333333333    0.06666666666667    0.04347826086957            16
    0.40000000000000    0.06666666666667    0.04347826086957            16
    0.46666666666667    0.06666666666667    0.04347826086957            16
    0.13333333333333    0.13333333333333    0.04347826086957             8
    0.20000000000000    0.13333333333333    0.04347826086957            16
    0.26666666666667    0.13333333333333    0.04347826086957            16
    0.33333333333333    0.13333333333333    0.04347826086957            16
    0.40000000000000    0.13333333333333    0.04347826086957            16
    0.46666666666667    0.13333333333333    0.04347826086957            16
    0.20000000000000    0.20000000000000    0.04347826086957             8
    0.26666666666667    0.20000000000000    0.04347826086957            16
    0.33333333333333    0.20000000000000    0.04347826086957            16
    0.40000000000000    0.20000000000000    0.04347826086957            16
    0.46666666666667    0.20000000000000    0.04347826086957            16
    0.26666666666667    0.26666666666667    0.04347826086957             8
    0.33333333333333    0.26666666666667    0.04347826086957            16
    0.40000000000000    0.26666666666667    0.04347826086957            16
    0.46666666666667    0.26666666666667    0.04347826086957            16
    0.33333333333333    0.33333333333333    0.04347826086957             8
    0.40000000000000    0.33333333333333    0.04347826086957            16
    0.46666666666667    0.33333333333333    0.04347826086957            16
    0.40000000000000    0.40000000000000    0.04347826086957             8
    0.46666666666667    0.40000000000000    0.04347826086957            16
    0.46666666666667    0.46666666666667    0.04347826086957             8
    0.00000000000000    0.00000000000000    0.08695652173913             2
    0.06666666666667    0.00000000000000    0.08695652173913             8
    0.13333333333333    0.00000000000000    0.08695652173913             8
    0.20000000000000    0.00000000000000    0.08695652173913             8
    0.26666666666667    0.00000000000000    0.08695652173913             8
    0.33333333333333    0.00000000000000    0.08695652173913             8
    0.40000000000000    0.00000000000000    0.08695652173913             8
    0.46666666666667    0.00000000000000    0.08695652173913             8
    0.06666666666667    0.06666666666667    0.08695652173913             8
    0.13333333333333    0.06666666666667    0.08695652173913            16
    0.20000000000000    0.06666666666667    0.08695652173913            16
    0.26666666666667    0.06666666666667    0.08695652173913            16
    0.33333333333333    0.06666666666667    0.08695652173913            16
    0.40000000000000    0.06666666666667    0.08695652173913            16
    0.46666666666667    0.06666666666667    0.08695652173913            16
    0.13333333333333    0.13333333333333    0.08695652173913             8
    0.20000000000000    0.13333333333333    0.08695652173913            16
    0.26666666666667    0.13333333333333    0.08695652173913            16
    0.33333333333333    0.13333333333333    0.08695652173913            16
    0.40000000000000    0.13333333333333    0.08695652173913            16
    0.46666666666667    0.13333333333333    0.08695652173913            16
    0.20000000000000    0.20000000000000    0.08695652173913             8
    0.26666666666667    0.20000000000000    0.08695652173913            16
    0.33333333333333    0.20000000000000    0.08695652173913            16
    0.40000000000000    0.20000000000000    0.08695652173913            16
    0.46666666666667    0.20000000000000    0.08695652173913            16
    0.26666666666667    0.26666666666667    0.08695652173913             8
    0.33333333333333    0.26666666666667    0.08695652173913            16
    0.40000000000000    0.26666666666667    0.08695652173913            16
    0.46666666666667    0.26666666666667    0.08695652173913            16
    0.33333333333333    0.33333333333333    0.08695652173913             8
    0.40000000000000    0.33333333333333    0.08695652173913            16
    0.46666666666667    0.33333333333333    0.08695652173913            16
    0.40000000000000    0.40000000000000    0.08695652173913             8
    0.46666666666667    0.40000000000000    0.08695652173913            16
    0.46666666666667    0.46666666666667    0.08695652173913             8
    0.00000000000000    0.00000000000000    0.13043478260870             2
    0.06666666666667    0.00000000000000    0.13043478260870             8
    0.13333333333333    0.00000000000000    0.13043478260870             8
    0.20000000000000    0.00000000000000    0.13043478260870             8
    0.26666666666667    0.00000000000000    0.13043478260870             8
    0.33333333333333    0.00000000000000    0.13043478260870             8
    0.40000000000000    0.00000000000000    0.13043478260870             8
    0.46666666666667    0.00000000000000    0.13043478260870             8
    0.06666666666667    0.06666666666667    0.13043478260870             8
    0.13333333333333    0.06666666666667    0.13043478260870            16
    0.20000000000000    0.06666666666667    0.13043478260870            16
    0.26666666666667    0.06666666666667    0.13043478260870            16
    0.33333333333333    0.06666666666667    0.13043478260870            16
    0.40000000000000    0.06666666666667    0.13043478260870            16
    0.46666666666667    0.06666666666667    0.13043478260870            16
    0.13333333333333    0.13333333333333    0.13043478260870             8
    0.20000000000000    0.13333333333333    0.13043478260870            16
    0.26666666666667    0.13333333333333    0.13043478260870            16
    0.33333333333333    0.13333333333333    0.13043478260870            16
    0.40000000000000    0.13333333333333    0.13043478260870            16
    0.46666666666667    0.13333333333333    0.13043478260870            16
    0.20000000000000    0.20000000000000    0.13043478260870             8
    0.26666666666667    0.20000000000000    0.13043478260870            16
    0.33333333333333    0.20000000000000    0.13043478260870            16
    0.40000000000000    0.20000000000000    0.13043478260870            16
    0.46666666666667    0.20000000000000    0.13043478260870            16
    0.26666666666667    0.26666666666667    0.13043478260870             8
    0.33333333333333    0.26666666666667    0.13043478260870            16
    0.40000000000000    0.26666666666667    0.13043478260870            16
    0.46666666666667    0.26666666666667    0.13043478260870            16
    0.33333333333333    0.33333333333333    0.13043478260870             8
    0.40000000000000    0.33333333333333    0.13043478260870            16
    0.46666666666667    0.33333333333333    0.13043478260870            16
    0.40000000000000    0.40000000000000    0.13043478260870             8
    0.46666666666667    0.40000000000000    0.13043478260870            16
    0.46666666666667    0.46666666666667    0.13043478260870             8
    0.00000000000000    0.00000000000000    0.17391304347826             2
    0.06666666666667    0.00000000000000    0.17391304347826             8
    0.13333333333333    0.00000000000000    0.17391304347826             8
    0.20000000000000    0.00000000000000    0.17391304347826             8
    0.26666666666667    0.00000000000000    0.17391304347826             8
    0.33333333333333    0.00000000000000    0.17391304347826             8
    0.40000000000000    0.00000000000000    0.17391304347826             8
    0.46666666666667    0.00000000000000    0.17391304347826             8
    0.06666666666667    0.06666666666667    0.17391304347826             8
    0.13333333333333    0.06666666666667    0.17391304347826            16
    0.20000000000000    0.06666666666667    0.17391304347826            16
    0.26666666666667    0.06666666666667    0.17391304347826            16
    0.33333333333333    0.06666666666667    0.17391304347826            16
    0.40000000000000    0.06666666666667    0.17391304347826            16
    0.46666666666667    0.06666666666667    0.17391304347826            16
    0.13333333333333    0.13333333333333    0.17391304347826             8
    0.20000000000000    0.13333333333333    0.17391304347826            16
    0.26666666666667    0.13333333333333    0.17391304347826            16
    0.33333333333333    0.13333333333333    0.17391304347826            16
    0.40000000000000    0.13333333333333    0.17391304347826            16
    0.46666666666667    0.13333333333333    0.17391304347826            16
    0.20000000000000    0.20000000000000    0.17391304347826             8
    0.26666666666667    0.20000000000000    0.17391304347826            16
    0.33333333333333    0.20000000000000    0.17391304347826            16
    0.40000000000000    0.20000000000000    0.17391304347826            16
    0.46666666666667    0.20000000000000    0.17391304347826            16
    0.26666666666667    0.26666666666667    0.17391304347826             8
    0.33333333333333    0.26666666666667    0.17391304347826            16
    0.40000000000000    0.26666666666667    0.17391304347826            16
    0.46666666666667    0.26666666666667    0.17391304347826            16
    0.33333333333333    0.33333333333333    0.17391304347826             8
    0.40000000000000    0.33333333333333    0.17391304347826            16
    0.46666666666667    0.33333333333333    0.17391304347826            16
    0.40000000000000    0.40000000000000    0.17391304347826             8
    0.46666666666667    0.40000000000000    0.17391304347826            16
    0.46666666666667    0.46666666666667    0.17391304347826             8
    0.00000000000000    0.00000000000000    0.21739130434783             2
    0.06666666666667    0.00000000000000    0.21739130434783             8
    0.13333333333333    0.00000000000000    0.21739130434783             8
    0.20000000000000    0.00000000000000    0.21739130434783             8
    0.26666666666667    0.00000000000000    0.21739130434783             8
    0.33333333333333    0.00000000000000    0.21739130434783             8
    0.40000000000000    0.00000000000000    0.21739130434783             8
    0.46666666666667    0.00000000000000    0.21739130434783             8
    0.06666666666667    0.06666666666667    0.21739130434783             8
    0.13333333333333    0.06666666666667    0.21739130434783            16
    0.20000000000000    0.06666666666667    0.21739130434783            16
    0.26666666666667    0.06666666666667    0.21739130434783            16
    0.33333333333333    0.06666666666667    0.21739130434783            16
    0.40000000000000    0.06666666666667    0.21739130434783            16
    0.46666666666667    0.06666666666667    0.21739130434783            16
    0.13333333333333    0.13333333333333    0.21739130434783             8
    0.20000000000000    0.13333333333333    0.21739130434783            16
    0.26666666666667    0.13333333333333    0.21739130434783            16
    0.33333333333333    0.13333333333333    0.21739130434783            16
    0.40000000000000    0.13333333333333    0.21739130434783            16
    0.46666666666667    0.13333333333333    0.21739130434783            16
    0.20000000000000    0.20000000000000    0.21739130434783             8
    0.26666666666667    0.20000000000000    0.21739130434783            16
    0.33333333333333    0.20000000000000    0.21739130434783            16
    0.40000000000000    0.20000000000000    0.21739130434783            16
    0.46666666666667    0.20000000000000    0.21739130434783            16
    0.26666666666667    0.26666666666667    0.21739130434783             8
    0.33333333333333    0.26666666666667    0.21739130434783            16
    0.40000000000000    0.26666666666667    0.21739130434783            16
    0.46666666666667    0.26666666666667    0.21739130434783            16
    0.33333333333333    0.33333333333333    0.21739130434783             8
    0.40000000000000    0.33333333333333    0.21739130434783            16
    0.46666666666667    0.33333333333333    0.21739130434783            16
    0.40000000000000    0.40000000000000    0.21739130434783             8
    0.46666666666667    0.40000000000000    0.21739130434783            16
    0.46666666666667    0.46666666666667    0.21739130434783             8
    0.00000000000000    0.00000000000000    0.26086956521739             2
    0.06666666666667    0.00000000000000    0.26086956521739             8
    0.13333333333333    0.00000000000000    0.26086956521739             8
    0.20000000000000    0.00000000000000    0.26086956521739             8
    0.26666666666667    0.00000000000000    0.26086956521739             8
    0.33333333333333    0.00000000000000    0.26086956521739             8
    0.40000000000000    0.00000000000000    0.26086956521739             8
    0.46666666666667    0.00000000000000    0.26086956521739             8
    0.06666666666667    0.06666666666667    0.26086956521739             8
    0.13333333333333    0.06666666666667    0.26086956521739            16
    0.20000000000000    0.06666666666667    0.26086956521739            16
    0.26666666666667    0.06666666666667    0.26086956521739            16
    0.33333333333333    0.06666666666667    0.26086956521739            16
    0.40000000000000    0.06666666666667    0.26086956521739            16
    0.46666666666667    0.06666666666667    0.26086956521739            16
    0.13333333333333    0.13333333333333    0.26086956521739             8
    0.20000000000000    0.13333333333333    0.26086956521739            16
    0.26666666666667    0.13333333333333    0.26086956521739            16
    0.33333333333333    0.13333333333333    0.26086956521739            16
    0.40000000000000    0.13333333333333    0.26086956521739            16
    0.46666666666667    0.13333333333333    0.26086956521739            16
    0.20000000000000    0.20000000000000    0.26086956521739             8
    0.26666666666667    0.20000000000000    0.26086956521739            16
    0.33333333333333    0.20000000000000    0.26086956521739            16
    0.40000000000000    0.20000000000000    0.26086956521739            16
    0.46666666666667    0.20000000000000    0.26086956521739            16
    0.26666666666667    0.26666666666667    0.26086956521739             8
    0.33333333333333    0.26666666666667    0.26086956521739            16
    0.40000000000000    0.26666666666667    0.26086956521739            16
    0.46666666666667    0.26666666666667    0.26086956521739            16
    0.33333333333333    0.33333333333333    0.26086956521739             8
    0.40000000000000    0.33333333333333    0.26086956521739            16
    0.46666666666667    0.33333333333333    0.26086956521739            16
    0.40000000000000    0.40000000000000    0.26086956521739             8
    0.46666666666667    0.40000000000000    0.26086956521739            16
    0.46666666666667    0.46666666666667    0.26086956521739             8
    0.00000000000000    0.00000000000000    0.30434782608696             2
    0.06666666666667    0.00000000000000    0.30434782608696             8
    0.13333333333333    0.00000000000000    0.30434782608696             8
    0.20000000000000    0.00000000000000    0.30434782608696             8
    0.26666666666667    0.00000000000000    0.30434782608696             8
    0.33333333333333    0.00000000000000    0.30434782608696             8
    0.40000000000000    0.00000000000000    0.30434782608696             8
    0.46666666666667    0.00000000000000    0.30434782608696             8
    0.06666666666667    0.06666666666667    0.30434782608696             8
    0.13333333333333    0.06666666666667    0.30434782608696            16
    0.20000000000000    0.06666666666667    0.30434782608696            16
    0.26666666666667    0.06666666666667    0.30434782608696            16
    0.33333333333333    0.06666666666667    0.30434782608696            16
    0.40000000000000    0.06666666666667    0.30434782608696            16
    0.46666666666667    0.06666666666667    0.30434782608696            16
    0.13333333333333    0.13333333333333    0.30434782608696             8
    0.20000000000000    0.13333333333333    0.30434782608696            16
    0.26666666666667    0.13333333333333    0.30434782608696            16
    0.33333333333333    0.13333333333333    0.30434782608696            16
    0.40000000000000    0.13333333333333    0.30434782608696            16
    0.46666666666667    0.13333333333333    0.30434782608696            16
    0.20000000000000    0.20000000000000    0.30434782608696             8
    0.26666666666667    0.20000000000000    0.30434782608696            16
    0.33333333333333    0.20000000000000    0.30434782608696            16
    0.40000000000000    0.20000000000000    0.30434782608696            16
    0.46666666666667    0.20000000000000    0.30434782608696            16
    0.26666666666667    0.26666666666667    0.30434782608696             8
    0.33333333333333    0.26666666666667    0.30434782608696            16
    0.40000000000000    0.26666666666667    0.30434782608696            16
    0.46666666666667    0.26666666666667    0.30434782608696            16
    0.33333333333333    0.33333333333333    0.30434782608696             8
    0.40000000000000    0.33333333333333    0.30434782608696            16
    0.46666666666667    0.33333333333333    0.30434782608696            16
    0.40000000000000    0.40000000000000    0.30434782608696             8
    0.46666666666667    0.40000000000000    0.30434782608696            16
    0.46666666666667    0.46666666666667    0.30434782608696             8
    0.00000000000000    0.00000000000000    0.34782608695652             2
    0.06666666666667    0.00000000000000    0.34782608695652             8
    0.13333333333333    0.00000000000000    0.34782608695652             8
    0.20000000000000    0.00000000000000    0.34782608695652             8
    0.26666666666667    0.00000000000000    0.34782608695652             8
    0.33333333333333    0.00000000000000    0.34782608695652             8
    0.40000000000000    0.00000000000000    0.34782608695652             8
    0.46666666666667    0.00000000000000    0.34782608695652             8
    0.06666666666667    0.06666666666667    0.34782608695652             8
    0.13333333333333    0.06666666666667    0.34782608695652            16
    0.20000000000000    0.06666666666667    0.34782608695652            16
    0.26666666666667    0.06666666666667    0.34782608695652            16
    0.33333333333333    0.06666666666667    0.34782608695652            16
    0.40000000000000    0.06666666666667    0.34782608695652            16
    0.46666666666667    0.06666666666667    0.34782608695652            16
    0.13333333333333    0.13333333333333    0.34782608695652             8
    0.20000000000000    0.13333333333333    0.34782608695652            16
    0.26666666666667    0.13333333333333    0.34782608695652            16
    0.33333333333333    0.13333333333333    0.34782608695652            16
    0.40000000000000    0.13333333333333    0.34782608695652            16
    0.46666666666667    0.13333333333333    0.34782608695652            16
    0.20000000000000    0.20000000000000    0.34782608695652             8
    0.26666666666667    0.20000000000000    0.34782608695652            16
    0.33333333333333    0.20000000000000    0.34782608695652            16
    0.40000000000000    0.20000000000000    0.34782608695652            16
    0.46666666666667    0.20000000000000    0.34782608695652            16
    0.26666666666667    0.26666666666667    0.34782608695652             8
    0.33333333333333    0.26666666666667    0.34782608695652            16
    0.40000000000000    0.26666666666667    0.34782608695652            16
    0.46666666666667    0.26666666666667    0.34782608695652            16
    0.33333333333333    0.33333333333333    0.34782608695652             8
    0.40000000000000    0.33333333333333    0.34782608695652            16
    0.46666666666667    0.33333333333333    0.34782608695652            16
    0.40000000000000    0.40000000000000    0.34782608695652             8
    0.46666666666667    0.40000000000000    0.34782608695652            16
    0.46666666666667    0.46666666666667    0.34782608695652             8
    0.00000000000000    0.00000000000000    0.39130434782609             2
    0.06666666666667    0.00000000000000    0.39130434782609             8
    0.13333333333333    0.00000000000000    0.39130434782609             8
    0.20000000000000    0.00000000000000    0.39130434782609             8
    0.26666666666667    0.00000000000000    0.39130434782609             8
    0.33333333333333    0.00000000000000    0.39130434782609             8
    0.40000000000000    0.00000000000000    0.39130434782609             8
    0.46666666666667    0.00000000000000    0.39130434782609             8
    0.06666666666667    0.06666666666667    0.39130434782609             8
    0.13333333333333    0.06666666666667    0.39130434782609            16
    0.20000000000000    0.06666666666667    0.39130434782609            16
    0.26666666666667    0.06666666666667    0.39130434782609            16
    0.33333333333333    0.06666666666667    0.39130434782609            16
    0.40000000000000    0.06666666666667    0.39130434782609            16
    0.46666666666667    0.06666666666667    0.39130434782609            16
    0.13333333333333    0.13333333333333    0.39130434782609             8
    0.20000000000000    0.13333333333333    0.39130434782609            16
    0.26666666666667    0.13333333333333    0.39130434782609            16
    0.33333333333333    0.13333333333333    0.39130434782609            16
    0.40000000000000    0.13333333333333    0.39130434782609            16
    0.46666666666667    0.13333333333333    0.39130434782609            16
    0.20000000000000    0.20000000000000    0.39130434782609             8
    0.26666666666667    0.20000000000000    0.39130434782609            16
    0.33333333333333    0.20000000000000    0.39130434782609            16
    0.40000000000000    0.20000000000000    0.39130434782609            16
    0.46666666666667    0.20000000000000    0.39130434782609            16
    0.26666666666667    0.26666666666667    0.39130434782609             8
    0.33333333333333    0.26666666666667    0.39130434782609            16
    0.40000000000000    0.26666666666667    0.39130434782609            16
    0.46666666666667    0.26666666666667    0.39130434782609            16
    0.33333333333333    0.33333333333333    0.39130434782609             8
    0.40000000000000    0.33333333333333    0.39130434782609            16
    0.46666666666667    0.33333333333333    0.39130434782609            16
    0.40000000000000    0.40000000000000    0.39130434782609             8
    0.46666666666667    0.40000000000000    0.39130434782609            16
    0.46666666666667    0.46666666666667    0.39130434782609             8
    0.00000000000000    0.00000000000000    0.43478260869565             2
    0.06666666666667    0.00000000000000    0.43478260869565             8
    0.13333333333333    0.00000000000000    0.43478260869565             8
    0.20000000000000    0.00000000000000    0.43478260869565             8
    0.26666666666667    0.00000000000000    0.43478260869565             8
    0.33333333333333    0.00000000000000    0.43478260869565             8
    0.40000000000000    0.00000000000000    0.43478260869565             8
    0.46666666666667    0.00000000000000    0.43478260869565             8
    0.06666666666667    0.06666666666667    0.43478260869565             8
    0.13333333333333    0.06666666666667    0.43478260869565            16
    0.20000000000000    0.06666666666667    0.43478260869565            16
    0.26666666666667    0.06666666666667    0.43478260869565            16
    0.33333333333333    0.06666666666667    0.43478260869565            16
    0.40000000000000    0.06666666666667    0.43478260869565            16
    0.46666666666667    0.06666666666667    0.43478260869565            16
    0.13333333333333    0.13333333333333    0.43478260869565             8
    0.20000000000000    0.13333333333333    0.43478260869565            16
    0.26666666666667    0.13333333333333    0.43478260869565            16
    0.33333333333333    0.13333333333333    0.43478260869565            16
    0.40000000000000    0.13333333333333    0.43478260869565            16
    0.46666666666667    0.13333333333333    0.43478260869565            16
    0.20000000000000    0.20000000000000    0.43478260869565             8
    0.26666666666667    0.20000000000000    0.43478260869565            16
    0.33333333333333    0.20000000000000    0.43478260869565            16
    0.40000000000000    0.20000000000000    0.43478260869565            16
    0.46666666666667    0.20000000000000    0.43478260869565            16
    0.26666666666667    0.26666666666667    0.43478260869565             8
    0.33333333333333    0.26666666666667    0.43478260869565            16
    0.40000000000000    0.26666666666667    0.43478260869565            16
    0.46666666666667    0.26666666666667    0.43478260869565            16
    0.33333333333333    0.33333333333333    0.43478260869565             8
    0.40000000000000    0.33333333333333    0.43478260869565            16
    0.46666666666667    0.33333333333333    0.43478260869565            16
    0.40000000000000    0.40000000000000    0.43478260869565             8
    0.46666666666667    0.40000000000000    0.43478260869565            16
    0.46666666666667    0.46666666666667    0.43478260869565             8
    0.00000000000000    0.00000000000000    0.47826086956522             2
    0.06666666666667    0.00000000000000    0.47826086956522             8
    0.13333333333333    0.00000000000000    0.47826086956522             8