VaspCalc                                
           1
     4.661790    0.000000    0.000000
     0.000000    4.661790    0.000000
     0.000000    0.000000    2.968801
   Ti   O 
   2   4
Direct configuration=     1
   0.00000000  0.00000000  0.00000000
   0.50000000  0.50000000  0.50000000
   0.19532460  0.80467540  0.50000000
   0.80467540  0.19532460  0.50000000
   0.69532460  0.69532460  0.00000000
   0.30467540  0.30467540  0.00000000
