   6   6   0   0
  0.1075314E+02  0.4661790E-09  0.4661790E-09  0.2968801E-09  0.5000000E-15
  1.000000000000000E-004
  CAR 
 vaspCalc                                
      6.34645857    -17.53999845  301      1.81051991      1.00000000
    -17.540  0.0000E+00  0.0000E+00
    -17.460  0.0000E+00  0.0000E+00
    -17.381  0.0000E+00  0.0000E+00
    -17.301  0.0000E+00  0.0000E+00
    -17.222  0.0000E+00  0.0000E+00
    -17.142  0.0000E+00  0.0000E+00
    -17.062  0.0000E+00  0.0000E+00
    -16.983  0.0000E+00  0.0000E+00
    -16.903  0.0000E+00  0.0000E+00
    -16.823  0.0000E+00  0.0000E+00
    -16.744  0.0000E+00  0.0000E+00
    -16.664  0.3144E-15  0.2504E-16
    -16.585  0.1506E-07  0.1199E-08
    -16.505  0.6527E-03  0.5197E-04
    -16.425  0.8087E-01  0.6491E-02
    -16.346  0.3699E+00  0.3594E-01
    -16.266  0.6007E+00  0.8377E-01
    -16.186  0.7998E+00  0.1475E+00
    -16.107  0.9968E+00  0.2268E+00
    -16.027  0.1206E+01  0.3229E+00
    -15.948  0.1525E+01  0.4443E+00
    -15.868  0.1857E+01  0.5922E+00
    -15.788  0.2429E+01  0.7856E+00
    -15.709  0.2955E+01  0.1021E+01
    -15.629  0.2977E+01  0.1258E+01
    -15.549  0.3399E+01  0.1529E+01
    -15.470  0.3844E+01  0.1835E+01
    -15.390  0.6555E+01  0.2357E+01
    -15.311  0.8326E+01  0.3020E+01
    -15.231  0.6702E+01  0.3553E+01
    -15.151  0.5148E+01  0.3963E+01
    -15.072  0.1027E+02  0.4781E+01
    -14.992  0.1767E+02  0.6187E+01
    -14.912  0.1603E+02  0.7464E+01
    -14.833  0.5730E+01  0.7920E+01
    -14.753  0.9937E+00  0.7999E+01
    -14.674  0.1223E-01  0.8000E+01
    -14.594  0.5072E-06  0.8000E+01
    -14.514  0.1723E-13  0.8000E+01
    -14.435  0.0000E+00  0.8000E+01
    -14.355  0.0000E+00  0.8000E+01
    -14.276  0.0000E+00  0.8000E+01
    -14.196  0.0000E+00  0.8000E+01
    -14.116  0.0000E+00  0.8000E+01
    -14.037  0.0000E+00  0.8000E+01
    -13.957  0.0000E+00  0.8000E+01
    -13.877  0.0000E+00  0.8000E+01
    -13.798  0.0000E+00  0.8000E+01
    -13.718  0.0000E+00  0.8000E+01
    -13.639  0.0000E+00  0.8000E+01
    -13.559  0.0000E+00  0.8000E+01
    -13.479  0.0000E+00  0.8000E+01
    -13.400  0.0000E+00  0.8000E+01
    -13.320  0.0000E+00  0.8000E+01
    -13.240  0.0000E+00  0.8000E+01
    -13.161  0.0000E+00  0.8000E+01
    -13.081  0.0000E+00  0.8000E+01
    -13.002  0.0000E+00  0.8000E+01
    -12.922  0.0000E+00  0.8000E+01
    -12.842  0.0000E+00  0.8000E+01
    -12.763  0.0000E+00  0.8000E+01
    -12.683  0.0000E+00  0.8000E+01
    -12.603  0.0000E+00  0.8000E+01
    -12.524  0.0000E+00  0.8000E+01
    -12.444  0.0000E+00  0.8000E+01
    -12.365  0.0000E+00  0.8000E+01
    -12.285  0.0000E+00  0.8000E+01
    -12.205  0.0000E+00  0.8000E+01
    -12.126  0.0000E+00  0.8000E+01
    -12.046  0.0000E+00  0.8000E+01
    -11.966  0.0000E+00  0.8000E+01
    -11.887  0.0000E+00  0.8000E+01
    -11.807  0.0000E+00  0.8000E+01
    -11.728  0.0000E+00  0.8000E+01
    -11.648  0.0000E+00  0.8000E+01
    -11.568  0.0000E+00  0.8000E+01
    -11.489  0.0000E+00  0.8000E+01
    -11.409  0.0000E+00  0.8000E+01
    -11.330  0.0000E+00  0.8000E+01
    -11.250  0.0000E+00  0.8000E+01
    -11.170  0.0000E+00  0.8000E+01
    -11.091  0.0000E+00  0.8000E+01
    -11.011  0.0000E+00  0.8000E+01
    -10.931  0.0000E+00  0.8000E+01
    -10.852  0.0000E+00  0.8000E+01
    -10.772  0.0000E+00  0.8000E+01
    -10.693  0.0000E+00  0.8000E+01
    -10.613  0.0000E+00  0.8000E+01
    -10.533  0.0000E+00  0.8000E+01
    -10.454  0.0000E+00  0.8000E+01
    -10.374  0.0000E+00  0.8000E+01
    -10.294  0.0000E+00  0.8000E+01
    -10.215  0.0000E+00  0.8000E+01
    -10.135  0.0000E+00  0.8000E+01
    -10.056  0.0000E+00  0.8000E+01
     -9.976  0.0000E+00  0.8000E+01
     -9.896  0.0000E+00  0.8000E+01
     -9.817  0.0000E+00  0.8000E+01
     -9.737  0.0000E+00  0.8000E+01
     -9.657  0.0000E+00  0.8000E+01
     -9.578  0.0000E+00  0.8000E+01
     -9.498  0.0000E+00  0.8000E+01
     -9.419  0.0000E+00  0.8000E+01
     -9.339  0.0000E+00  0.8000E+01
     -9.259  0.0000E+00  0.8000E+01
     -9.180  0.0000E+00  0.8000E+01
     -9.100  0.0000E+00  0.8000E+01
     -9.020  0.0000E+00  0.8000E+01
     -8.941  0.0000E+00  0.8000E+01
     -8.861  0.0000E+00  0.8000E+01
     -8.782  0.0000E+00  0.8000E+01
     -8.702  0.0000E+00  0.8000E+01
     -8.622  0.0000E+00  0.8000E+01
     -8.543  0.0000E+00  0.8000E+01
     -8.463  0.0000E+00  0.8000E+01
     -8.384  0.0000E+00  0.8000E+01
     -8.304  0.0000E+00  0.8000E+01
     -8.224  0.0000E+00  0.8000E+01
     -8.145  0.0000E+00  0.8000E+01
     -8.065  0.0000E+00  0.8000E+01
     -7.985  0.0000E+00  0.8000E+01
     -7.906  0.0000E+00  0.8000E+01
     -7.826  0.0000E+00  0.8000E+01
     -7.747  0.0000E+00  0.8000E+01
     -7.667  0.0000E+00  0.8000E+01
     -7.587  0.0000E+00  0.8000E+01
     -7.508  0.0000E+00  0.8000E+01
     -7.428  0.0000E+00  0.8000E+01
     -7.348  0.0000E+00  0.8000E+01
     -7.269  0.0000E+00  0.8000E+01
     -7.189  0.0000E+00  0.8000E+01
     -7.110  0.0000E+00  0.8000E+01
     -7.030  0.0000E+00  0.8000E+01
     -6.950  0.0000E+00  0.8000E+01
     -6.871  0.0000E+00  0.8000E+01
     -6.791  0.0000E+00  0.8000E+01
     -6.711  0.0000E+00  0.8000E+01
     -6.632  0.0000E+00  0.8000E+01
     -6.552  0.0000E+00  0.8000E+01
     -6.473  0.0000E+00  0.8000E+01
     -6.393  0.0000E+00  0.8000E+01
     -6.313  0.0000E+00  0.8000E+01
     -6.234  0.0000E+00  0.8000E+01
     -6.154  0.0000E+00  0.8000E+01
     -6.074  0.0000E+00  0.8000E+01
     -5.995  0.0000E+00  0.8000E+01
     -5.915  0.0000E+00  0.8000E+01
     -5.836  0.0000E+00  0.8000E+01
     -5.756  0.0000E+00  0.8000E+01
     -5.676  0.0000E+00  0.8000E+01
     -5.597  0.0000E+00  0.8000E+01
     -5.517  0.0000E+00  0.8000E+01
     -5.438  0.0000E+00  0.8000E+01
     -5.358  0.0000E+00  0.8000E+01
     -5.278  0.0000E+00  0.8000E+01
     -5.199  0.0000E+00  0.8000E+01
     -5.119  0.0000E+00  0.8000E+01
     -5.039  0.0000E+00  0.8000E+01
     -4.960  0.0000E+00  0.8000E+01
     -4.880  0.0000E+00  0.8000E+01
     -4.801  0.0000E+00  0.8000E+01
     -4.721  0.0000E+00  0.8000E+01
     -4.641  0.0000E+00  0.8000E+01
     -4.562  0.0000E+00  0.8000E+01
     -4.482  0.0000E+00  0.8000E+01
     -4.402  0.0000E+00  0.8000E+01
     -4.323  0.0000E+00  0.8000E+01
     -4.243  0.0000E+00  0.8000E+01
     -4.164  0.3576E-10  0.8000E+01
     -4.084  0.1235E-04  0.8000E+01
     -4.004  0.8292E-02  0.8001E+01
     -3.925  0.1005E+00  0.8009E+01
     -3.845  0.2559E+00  0.8029E+01
     -3.765  0.6450E+00  0.8080E+01
     -3.686  0.1411E+01  0.8193E+01
     -3.606  0.1471E+01  0.8310E+01
     -3.527  0.1688E+01  0.8444E+01
     -3.447  0.1813E+01  0.8589E+01
     -3.367  0.2068E+01  0.8753E+01
     -3.288  0.2192E+01  0.8928E+01
     -3.208  0.3669E+01  0.9220E+01
     -3.129  0.4928E+01  0.9612E+01
     -3.049  0.4905E+01  0.1000E+02
     -2.969  0.5261E+01  0.1042E+02
     -2.890  0.6197E+01  0.1092E+02
     -2.810  0.6411E+01  0.1143E+02
     -2.730  0.7378E+01  0.1201E+02
     -2.651  0.8315E+01  0.1268E+02
     -2.571  0.7853E+01  0.1330E+02
     -2.492  0.6619E+01  0.1383E+02
     -2.412  0.7070E+01  0.1439E+02
     -2.332  0.7792E+01  0.1501E+02
     -2.253  0.5480E+01  0.1545E+02
     -2.173  0.3770E+01  0.1575E+02
     -2.093  0.4690E+01  0.1612E+02
     -2.014  0.5308E+01  0.1654E+02
     -1.934  0.3299E+01  0.1681E+02
     -1.855  0.3690E+01  0.1710E+02
     -1.775  0.3556E+01  0.1738E+02
     -1.695  0.3978E+01  0.1770E+02
     -1.616  0.3909E+01  0.1801E+02
     -1.536  0.3797E+01  0.1831E+02
     -1.456  0.3496E+01  0.1859E+02
     -1.377  0.4050E+01  0.1891E+02
     -1.297  0.3731E+01  0.1921E+02
     -1.218  0.4286E+01  0.1955E+02
     -1.138  0.4673E+01  0.1992E+02
     -1.058  0.5637E+01  0.2037E+02
     -0.979  0.5710E+01  0.2083E+02
     -0.899  0.5982E+01  0.2130E+02
     -0.819  0.5575E+01  0.2175E+02
     -0.740  0.5584E+01  0.2219E+02
     -0.660  0.6250E+01  0.2269E+02
     -0.581  0.4849E+01  0.2308E+02
     -0.501  0.5539E+01  0.2352E+02
     -0.421  0.4773E+01  0.2390E+02
     -0.342  0.4940E+01  0.2429E+02
     -0.262  0.6351E+01  0.2480E+02
     -0.183  0.6208E+01  0.2529E+02
     -0.103  0.5397E+01  0.2572E+02
     -0.023  0.6025E+01  0.2620E+02
      0.056  0.6398E+01  0.2671E+02
      0.136  0.6088E+01  0.2719E+02
      0.216  0.5350E+01  0.2762E+02
      0.295  0.4993E+01  0.2802E+02
      0.375  0.4382E+01  0.2837E+02
      0.454  0.5098E+01  0.2877E+02
      0.534  0.4713E+01  0.2915E+02
      0.614  0.4906E+01  0.2954E+02
      0.693  0.5158E+01  0.2995E+02
      0.773  0.5502E+01  0.3039E+02
      0.853  0.5301E+01  0.3081E+02
      0.932  0.4466E+01  0.3117E+02
      1.012  0.2776E+01  0.3139E+02
      1.091  0.1989E+01  0.3154E+02
      1.171  0.1647E+01  0.3168E+02
      1.251  0.1189E+01  0.3177E+02
      1.330  0.9542E+00  0.3185E+02
      1.410  0.7600E+00  0.3191E+02
      1.490  0.6366E+00  0.3196E+02
      1.569  0.4385E+00  0.3199E+02
      1.649  0.9557E-01  0.3200E+02
      1.728  0.4671E-03  0.3200E+02
      1.808  0.3689E-08  0.3200E+02
      1.888  0.1832E-16  0.3200E+02
      1.967  0.0000E+00  0.3200E+02
      2.047  0.0000E+00  0.3200E+02
      2.127  0.0000E+00  0.3200E+02
      2.206  0.0000E+00  0.3200E+02
      2.286  0.0000E+00  0.3200E+02
      2.365  0.0000E+00  0.3200E+02
      2.445  0.0000E+00  0.3200E+02
      2.525  0.0000E+00  0.3200E+02
      2.604  0.0000E+00  0.3200E+02
      2.684  0.0000E+00  0.3200E+02
      2.763  0.0000E+00  0.3200E+02
      2.843  0.0000E+00  0.3200E+02
      2.923  0.0000E+00  0.3200E+02
      3.002  0.8083E-18  0.3200E+02
      3.082  0.2294E-09  0.3200E+02
      3.162  0.3910E-04  0.3200E+02
      3.241  0.2574E-01  0.3200E+02
      3.321  0.6719E+00  0.3206E+02
      3.400  0.2136E+01  0.3223E+02
      3.480  0.3980E+01  0.3254E+02
      3.560  0.4439E+01  0.3290E+02
      3.639  0.4365E+01  0.3324E+02
      3.719  0.4418E+01  0.3360E+02
      3.799  0.4904E+01  0.3399E+02
      3.878  0.6391E+01  0.3449E+02
      3.958  0.8350E+01  0.3516E+02
      4.037  0.7784E+01  0.3578E+02
      4.117  0.6947E+01  0.3633E+02
      4.197  0.6217E+01  0.3683E+02
      4.276  0.5717E+01  0.3728E+02
      4.356  0.5307E+01  0.3770E+02
      4.436  0.4924E+01  0.3810E+02
      4.515  0.4252E+01  0.3844E+02
      4.595  0.3495E+01  0.3871E+02
      4.674  0.2495E+01  0.3891E+02
      4.754  0.2281E+01  0.3909E+02
      4.834  0.1885E+01  0.3924E+02
      4.913  0.2007E+01  0.3940E+02
      4.993  0.2082E+01  0.3957E+02
      5.073  0.1933E+01  0.3972E+02
      5.152  0.1950E+01  0.3988E+02
      5.232  0.1245E+01  0.3998E+02
      5.311  0.2709E+00  0.4000E+02
      5.391  0.4374E-02  0.4000E+02
      5.471  0.2186E-06  0.4000E+02
      5.550  0.5902E-14  0.4000E+02
      5.630  0.0000E+00  0.4000E+02
      5.709  0.0000E+00  0.4000E+02
      5.789  0.0000E+00  0.4000E+02
      5.869  0.0000E+00  0.4000E+02
      5.948  0.0000E+00  0.4000E+02
      6.028  0.0000E+00  0.4000E+02
      6.108  0.0000E+00  0.4000E+02
      6.187  0.0000E+00  0.4000E+02
      6.267  0.0000E+00  0.4000E+02
      6.346  0.0000E+00  0.4000E+02
