    6    6    1    1
  0.1075314E+02  0.4661790E-09  0.4661790E-09  0.2968801E-09  0.5000000E-15
  1.000000000000000E-004
  CAR 
 vaspCalc                                
     32    432     20
 
  0.0000000E+00  0.0000000E+00  0.0000000E+00  0.1932367E-03
    1      -16.454250   1.000000
    2      -15.316762   1.000000
    3      -14.795422   1.000000
    4      -14.795422   1.000000
    5       -4.003309   1.000000
    6       -3.569027   1.000000
    7       -3.077392   1.000000
    8       -2.081984   1.000000
    9       -2.081984   1.000000
   10       -0.892132   1.000000
   11       -0.892132   1.000000
   12       -0.255648   1.000000
   13        0.984937   1.000000
   14        1.218650   1.000000
   15        1.218650   1.000000
   16        1.585853   1.000000
   17        3.233048   0.000000
   18        3.511786   0.000000
   19        3.781858   0.000000
   20        3.841716   0.000000
 
  0.6666667E-01  0.0000000E+00  0.0000000E+00  0.7729469E-03
    1      -16.440705   1.000000
    2      -15.320134   1.000000
    3      -14.807730   1.000000
    4      -14.799070   1.000000
    5       -3.974613   1.000000
    6       -3.552136   1.000000
    7       -3.050820   1.000000
    8       -2.080251   1.000000
    9       -2.078881   1.000000
   10       -0.919650   1.000000
   11       -0.897987   1.000000
   12       -0.253921   1.000000
   13        0.954892   1.000000
   14        1.127047   1.000000
   15        1.174377   1.000000
   16        1.577505   1.000000
   17        3.259745   0.000000
   18        3.550779   0.000000
   19        3.818013   0.000000
   20        3.862254   0.000000
 
  0.1333333E+00  0.0000000E+00  0.0000000E+00  0.7729469E-03
    1      -16.400877   1.000000
    2      -15.332735   1.000000
    3      -14.841262   1.000000
    4      -14.809798   1.000000
    5       -3.892355   1.000000
    6       -3.503266   1.000000
    7       -2.969773   1.000000
    8       -2.075184   1.000000
    9       -2.070240   1.000000
   10       -0.996994   1.000000
   11       -0.918713   1.000000
   12       -0.247349   1.000000
   13        0.870219   1.000000
   14        0.884545   1.000000
   15        1.062903   1.000000
   16        1.538657   1.000000
   17        3.332043   0.000000
   18        3.647380   0.000000
   19        3.910178   0.000000
   20        3.911196   0.000000
 
  0.2000000E+00  0.0000000E+00  0.0000000E+00  0.7729469E-03
    1      -16.336004   1.000000
    2      -15.361310   1.000000
    3      -14.886033   1.000000
    4      -14.827079   1.000000
    5       -3.767768   1.000000
    6       -3.428144   1.000000
    7       -2.830559   1.000000
    8       -2.067261   1.000000
    9       -2.057932   1.000000
   10       -1.109842   1.000000
   11       -0.962691   1.000000
   12       -0.232100   1.000000
   13        0.540470   1.000000
   14        0.744687   1.000000
   15        0.931621   1.000000
   16        1.461913   1.000000
   17        3.433195   0.000000
   18        3.759061   0.000000
   19        3.989167   0.000000
   20        4.047467   0.000000
 
  0.2666667E+00  0.0000000E+00  0.0000000E+00  0.7729469E-03
    1      -16.248077   1.000000
    2      -15.415377   1.000000
    3      -14.926739   1.000000
    4      -14.849319   1.000000
    5       -3.618083   1.000000
    6       -3.337466   1.000000
    7       -2.628477   1.000000
    8       -2.057258   1.000000
    9       -2.044652   1.000000
   10       -1.237390   1.000000
   11       -1.038570   1.000000
   12       -0.202837   1.000000
   13        0.132718   1.000000
   14        0.594799   1.000000
   15        0.826843   1.000000
   16        1.354426   1.000000
   17        3.546492   0.000000
   18        3.850423   0.000000
   19        4.079315   0.000000
   20        4.187823   0.000000
 
  0.3333333E+00  0.0000000E+00  0.0000000E+00  0.7729469E-03
    1      -16.139955   1.000000
    2      -15.500998   1.000000
    3      -14.950886   1.000000
    4      -14.874726   1.000000
    5       -3.463482   1.000000
    6       -3.248425   1.000000
    7       -2.361173   1.000000
    8       -2.046353   1.000000
    9       -2.033303   1.000000
   10       -1.354346   1.000000
   11       -1.145790   1.000000
   12       -0.309387   1.000000
   13       -0.154106   1.000000
   14        0.435860   1.000000
   15        0.777837   1.000000
   16        1.227305   1.000000
   17        3.658366   0.000000
   18        3.904317   0.000000
   19        4.178903   0.000000
   20        4.384316   0.000000
 
  0.4000000E+00  0.0000000E+00  0.0000000E+00  0.7729469E-03
    1      -16.016375   1.000000
    2      -15.614611   1.000000
    3      -14.955721   1.000000
    4      -14.901159   1.000000
    5       -3.324320   1.000000
    6       -3.184948   1.000000
    7       -2.036094   1.000000
    8       -2.032857   1.000000
    9       -2.026210   1.000000
   10       -1.433440   1.000000
   11       -1.266426   1.000000
   12       -0.761788   1.000000
   13       -0.081732   1.000000
   14        0.280400   1.000000
   15        0.791764   1.000000
   16        1.093036   1.000000
   17        3.758523   0.000000
   18        3.917727   0.000000
   19        4.279850   0.000000
   20        4.554431   0.000000
 
  0.4666667E+00  0.0000000E+00  0.0000000E+00  0.7729469E-03
    1      -15.882463   1.000000
    2      -15.745411   1.000000
    3      -14.945573   1.000000
    4      -14.925883   1.000000
    5       -3.220842   1.000000
    6       -3.171773   1.000000
    7       -2.028265   1.000000
    8       -2.024581   1.000000
    9       -1.660826   1.000000
   10       -1.459905   1.000000
   11       -1.361448   1.000000
   12       -1.195731   1.000000
   13        0.016061   1.000000
   14        0.138139   1.000000
   15        0.859542   1.000000
   16        0.965416   1.000000
   17        3.839243   0.000000
   18        3.894236   0.000000
   19        4.306643   0.000000
   20        4.329328   0.000000
 
  0.6666667E-01  0.6666667E-01  0.0000000E+00  0.7729469E-03
    1      -16.427508   1.000000
    2      -15.323953   1.000000
    3      -14.821078   1.000000
    4      -14.800793   1.000000
    5       -3.951348   1.000000
    6       -3.531427   1.000000
    7       -3.024742   1.000000
    8       -2.084651   1.000000
    9       -2.070208   1.000000
   10       -0.965629   1.000000
   11       -0.883468   1.000000
   12       -0.251893   1.000000
   13        0.927722   1.000000
   14        1.031337   1.000000
   15        1.145914   1.000000
   16        1.571096   1.000000
   17        3.269265   0.000000
   18        3.593713   0.000000
   19        3.849420   0.000000
   20        3.863443   0.000000
 
  0.1333333E+00  0.6666667E-01  0.0000000E+00  0.1545894E-02
    1      -16.388533   1.000000
    2      -15.337381   1.000000
    3      -14.853438   1.000000
    4      -14.810246   1.000000
    5       -3.884766   1.000000
    6       -3.472051   1.000000
    7       -2.945167   1.000000
    8       -2.084824   1.000000
    9       -2.057977   1.000000
   10       -1.053949   1.000000
   11       -0.887157   1.000000
   12       -0.244383   1.000000
   13        0.807978   1.000000
   14        0.850525   1.000000
   15        1.042399   1.000000
   16        1.534925   1.000000
   17        3.312434   0.000000
   18        3.690859   0.000000
   19        3.864893   0.000000
   20        3.942977   0.000000
 
  0.2000000E+00  0.6666667E-01  0.0000000E+00  0.1545894E-02
    1      -16.324887   1.000000
    2      -15.367046   1.000000
    3      -14.894918   1.000000
    4      -14.826925   1.000000
    5       -3.783366   1.000000
    6       -3.383644   1.000000
    7       -2.808243   1.000000
    8       -2.080263   1.000000
    9       -2.044896   1.000000
   10       -1.166925   1.000000
   11       -0.920263   1.000000
   12       -0.227492   1.000000
   13        0.499079   1.000000
   14        0.734449   1.000000
   15        0.906729   1.000000
   16        1.457228   1.000000
   17        3.395525   0.000000
   18        3.793740   0.000000
   19        3.922904   0.000000
   20        4.078534   0.000000
 
  0.2666667E+00  0.6666667E-01  0.0000000E+00  0.1545894E-02
    1      -16.238653   1.000000
    2      -15.421933   1.000000
    3      -14.931902   1.000000
    4      -14.848789   1.000000
    5       -3.658268   1.000000
    6       -3.284891   1.000000
    7       -2.609471   1.000000
    8       -2.071661   1.000000
    9       -2.033436   1.000000
   10       -1.282688   1.000000
   11       -0.992550   1.000000
   12       -0.195958   1.000000
   13        0.129115   1.000000
   14        0.593625   1.000000
   15        0.793767   1.000000
   16        1.345501   1.000000
   17        3.503757   0.000000
   18        3.871910   0.000000
   19        4.047315   0.000000
   20        4.240289   0.000000
 
  0.3333333E+00  0.6666667E-01  0.0000000E+00  0.1545894E-02
    1      -16.132817   1.000000
    2      -15.507151   1.000000
    3      -14.952930   1.000000
    4      -14.873984   1.000000
    5       -3.521144   1.000000
    6       -3.202293   1.000000
    7       -2.348996   1.000000
    8       -2.060255   1.000000
    9       -2.025923   1.000000
   10       -1.370773   1.000000
   11       -1.109144   1.000000
   12       -0.277207   1.000000
   13       -0.144623   1.000000
   14        0.441875   1.000000
   15        0.739705   1.000000
   16        1.212458   1.000000
   17        3.618624   0.000000
   18        3.912509   0.000000
   19        4.126774   0.000000
   20        4.403190   0.000000
 
  0.4000000E+00  0.6666667E-01  0.0000000E+00  0.1545894E-02
    1      -16.011928   1.000000
    2      -15.618832   1.000000
    3      -14.956004   1.000000
    4      -14.900293   1.000000
    5       -3.384926   1.000000
    6       -3.163605   1.000000
    7       -2.047745   1.000000
    8       -2.038413   1.000000
    9       -2.023882   1.000000
   10       -1.395001   1.000000
   11       -1.263019   1.000000
   12       -0.691313   1.000000
   13       -0.069865   1.000000
   14        0.291194   1.000000
   15        0.753750   1.000000
   16        1.071588   1.000000
   17        3.725719   0.000000
   18        3.913951   0.000000
   19        4.217446   0.000000
   20        4.562252   0.000000
 
  0.4666667E+00  0.6666667E-01  0.0000000E+00  0.1545894E-02
    1      -15.880844   1.000000
    2      -15.746920   1.000000
    3      -14.944912   1.000000
    4      -14.924957   1.000000
    5       -3.266226   1.000000
    6       -3.186092   1.000000
    7       -2.036157   1.000000
    8       -2.027610   1.000000
    9       -1.712888   1.000000
   10       -1.450661   1.000000
   11       -1.313071   1.000000
   12       -1.067746   1.000000
   13        0.029377   1.000000
   14        0.151295   1.000000
   15        0.825506   1.000000
   16        0.937324   1.000000
   17        3.815151   0.000000
   18        3.879811   0.000000
   19        4.275049   0.000000
   20        4.328276   0.000000
 
  0.1333333E+00  0.1333333E+00  0.0000000E+00  0.7729469E-03
    1      -16.351851   1.000000
    2      -15.353327   1.000000
    3      -14.882147   1.000000
    4      -14.816258   1.000000
    5       -3.857848   1.000000
    6       -3.389460   1.000000
    7       -2.870075   1.000000
    8       -2.092185   1.000000
    9       -2.043366   1.000000
   10       -1.156222   1.000000
   11       -0.857034   1.000000
   12       -0.233977   1.000000
   13        0.623956   1.000000
   14        0.793073   1.000000
   15        0.962219   1.000000
   16        1.507675   1.000000
   17        3.297910   0.000000
   18        3.777352   0.000000
   19        3.846005   0.000000
   20        4.034348   0.000000
 
  0.2000000E+00  0.1333333E+00  0.0000000E+00  0.1545894E-02
    1      -16.291932   1.000000
    2      -15.386040   1.000000
    3      -14.915869   1.000000
    4      -14.829743   1.000000
    5       -3.805149   1.000000
    6       -3.283526   1.000000
    7       -2.740436   1.000000
    8       -2.094170   1.000000
    9       -2.031180   1.000000
   10       -1.265671   1.000000
   11       -0.856933   1.000000
   12       -0.212195   1.000000
   13        0.381718   1.000000
   14        0.702775   1.000000
   15        0.833455   1.000000
   16        1.435714   1.000000
   17        3.331667   0.000000
   18        3.856285   0.000000
   19        3.866076   0.000000
   20        4.164390   0.000000
 
  0.2666667E+00  0.1333333E+00  0.0000000E+00  0.1545894E-02
    1      -16.210897   1.000000
    2      -15.442605   1.000000
    3      -14.943437   1.000000
    4      -14.849386   1.000000
    5       -3.724526   1.000000
    6       -3.191235   1.000000
    7       -2.552123   1.000000
    8       -2.090475   1.000000
    9       -2.023909   1.000000
   10       -1.351582   1.000000
   11       -0.905510   1.000000
   12       -0.174134   1.000000
   13        0.101547   1.000000
   14        0.587376   1.000000
   15        0.705494   1.000000
   16        1.319163   1.000000
   17        3.413946   0.000000
   18        3.905171   0.000000
   19        3.924333   0.000000
   20        4.318099   0.000000
 
  0.3333333E+00  0.1333333E+00  0.0000000E+00  0.1545894E-02
    1      -16.111854   1.000000
    2      -15.525839   1.000000
    3      -14.957231   1.000000
    4      -14.873114   1.000000
    5       -3.618822   1.000000
    6       -3.147057   1.000000
    7       -2.309896   1.000000
    8       -2.081617   1.000000
    9       -2.023088   1.000000
   10       -1.380090   1.000000
   11       -1.017325   1.000000
   12       -0.209093   1.000000
   13       -0.115661   1.000000
   14        0.456497   1.000000
   15        0.634917   1.000000
   16        1.172536   1.000000
   17        3.524356   0.000000
   18        3.916820   0.000000
   19        4.009661   0.000000
   20        4.457620   0.000000
 
  0.4000000E+00  0.1333333E+00  0.0000000E+00  0.1545894E-02
    1      -15.998652   1.000000
    2      -15.631655   1.000000
    3      -14.955987   1.000000
    4      -14.898415   1.000000
    5       -3.495309   1.000000
    6       -3.168614   1.000000
    7       -2.068872   1.000000
    8       -2.032225   1.000000
    9       -2.028861   1.000000
   10       -1.351413   1.000000
   11       -1.161472   1.000000
   12       -0.534978   1.000000
   13       -0.034805   1.000000
   14        0.320238   1.000000
   15        0.647023   1.000000
   16        1.013523   1.000000
   17        3.640996   0.000000
   18        3.891704   0.000000
   19        4.107669   0.000000
   20        4.534083   0.000000
 
  0.4666667E+00  0.1333333E+00  0.0000000E+00  0.1545894E-02
    1      -15.876404   1.000000
    2      -15.751474   1.000000
    3      -14.943142   1.000000
    4      -14.922763   1.000000
    5       -3.366073   1.000000
    6       -3.249208   1.000000
    7       -2.054175   1.000000
    8       -2.039971   1.000000
    9       -1.746878   1.000000
   10       -1.486780   1.000000
   11       -1.091370   1.000000
   12       -0.844394   1.000000
   13        0.067610   1.000000
   14        0.187957   1.000000
   15        0.730044   1.000000
   16        0.859687   1.000000
   17        3.747604   0.000000
   18        3.833542   0.000000
   19        4.201606   0.000000
   20        4.279085   0.000000
 
  0.2000000E+00  0.2000000E+00  0.0000000E+00  0.7729469E-03
    1      -16.238236   1.000000
    2      -15.422069   1.000000
    3      -14.938685   1.000000
    4      -14.838859   1.000000
    5       -3.804447   1.000000
    6       -3.182875   1.000000
    7       -2.623159   1.000000
    8       -2.103275   1.000000
    9       -2.023141   1.000000
   10       -1.348716   1.000000
   11       -0.811890   1.000000
   12       -0.182577   1.000000
   13        0.212643   1.000000
   14        0.647834   1.000000
   15        0.717432   1.000000
   16        1.379062   1.000000
   17        3.301876   0.000000
   18        3.847647   0.000000
   19        3.902764   0.000000
   20        4.287142   0.000000
 
  0.2666667E+00  0.2000000E+00  0.0000000E+00  0.1545894E-02
    1      -16.165747   1.000000
    2      -15.478889   1.000000
    3      -14.954854   1.000000
    4      -14.854067   1.000000
    5       -3.770841   1.000000
    6       -3.130209   1.000000
    7       -2.451602   1.000000
    8       -2.106121   1.000000
    9       -2.022647   1.000000
   10       -1.378278   1.000000
   11       -0.813793   1.000000
   12       -0.134789   1.000000
   13        0.027138   1.000000
   14        0.569479   1.000000
   15        0.582498   1.000000
   16        1.272424   1.000000
   17        3.331279   0.000000
   18        3.869562   0.000000
   19        3.916970   0.000000
   20        4.430096   0.000000
 
  0.3333333E+00  0.2000000E+00  0.0000000E+00  0.1545894E-02
    1      -16.077671   1.000000
    2      -15.556896   1.000000
    3      -14.960223   1.000000
    4      -14.874335   1.000000
    5       -3.703184   1.000000
    6       -3.150572   1.000000
    7       -2.231459   1.000000
    8       -2.102276   1.000000
    9       -2.029858   1.000000
   10       -1.339081   1.000000
   11       -0.888202   1.000000
   12       -0.159193   1.000000
   13       -0.066623   1.000000
   14        0.470891   1.000000
   15        0.486280   1.000000
   16        1.119051   1.000000
   17        3.413834   0.000000
   18        3.895172   0.000000
   19        3.928255   0.000000
   20        4.552458   0.000000
 
  0.4000000E+00  0.2000000E+00  0.0000000E+00  0.1545894E-02
    1      -15.977139   1.000000
    2      -15.652233   1.000000
    3      -14.954410   1.000000
    4      -14.897041   1.000000
    5       -3.605251   1.000000
    6       -3.234623   1.000000
    7       -2.092245   1.000000
    8       -2.043252   1.000000
    9       -1.979303   1.000000
   10       -1.308748   1.000000
   11       -0.959918   1.000000
   12       -0.370856   1.000000
   13        0.021375   1.000000
   14        0.358555   1.000000
   15        0.490520   1.000000
   16        0.937995   1.000000
   17        3.526554   0.000000
   18        3.839205   0.000000
   19        4.014814   0.000000
   20        4.485980   0.000000
 
  0.4666667E+00  0.2000000E+00  0.0000000E+00  0.1545894E-02
    1      -15.869064   1.000000
    2      -15.758616   1.000000
    3      -14.939968   1.000000
    4      -14.919849   1.000000
    5       -3.484921   1.000000
    6       -3.354940   1.000000
    7       -2.077454   1.000000
    8       -2.060158   1.000000
    9       -1.714519   1.000000
   10       -1.464478   1.000000
   11       -0.837823   1.000000
   12       -0.610732   1.000000
   13        0.125742   1.000000
   14        0.240666   1.000000
   15        0.592970   1.000000
   16        0.753595   1.000000
   17        3.645657   0.000000
   18        3.753639   0.000000
   19        4.110348   0.000000
   20        4.205790   0.000000
 
  0.2666667E+00  0.2666667E+00  0.0000000E+00  0.7729469E-03
    1      -16.105223   1.000000
    2      -15.531515   1.000000
    3      -14.961004   1.000000
    4      -14.864285   1.000000
    5       -3.783160   1.000000
    6       -3.142039   1.000000
    7       -2.300019   1.000000
    8       -2.115977   1.000000
    9       -2.030223   1.000000
   10       -1.336215   1.000000
   11       -0.747821   1.000000
   12       -0.076072   1.000000
   13       -0.072922   1.000000
   14        0.440481   1.000000
   15        0.533004   1.000000
   16        1.190605   1.000000
   17        3.294612   0.000000
   18        3.851407   0.000000
   19        3.895932   0.000000
   20        4.536282   0.000000
 
  0.3333333E+00  0.2666667E+00  0.0000000E+00  0.1545894E-02
    1      -16.031903   1.000000
    2      -15.599665   1.000000
    3      -14.959559   1.000000
    4      -14.879348   1.000000
    5       -3.757514   1.000000
    6       -3.224191   1.000000
    7       -2.118596   1.000000
    8       -2.101111   1.000000
    9       -2.045106   1.000000
   10       -1.249814   1.000000
   11       -0.750241   1.000000
   12       -0.144769   1.000000
   13        0.001384   1.000000
   14        0.315897   1.000000
   15        0.474217   1.000000
   16        1.056382   1.000000
   17        3.322363   0.000000
   18        3.840668   0.000000
   19        3.873258   0.000000
   20        4.640645   0.000000
 
  0.4000000E+00  0.2666667E+00  0.0000000E+00  0.1545894E-02
    1      -15.948683   1.000000
    2      -15.680062   1.000000
    3      -14.950508   1.000000
    4      -14.897728   1.000000
    5       -3.694608   1.000000
    6       -3.346277   1.000000
    7       -2.113566   1.000000
    8       -2.064303   1.000000
    9       -1.869441   1.000000
   10       -1.233848   1.000000
   11       -0.748511   1.000000
   12       -0.238445   1.000000
   13        0.094073   1.000000
   14        0.309032   1.000000
   15        0.394325   1.000000
   16        0.870983   1.000000
   17        3.406382   0.000000
   18        3.754467   0.000000
   19        3.931415   0.000000
   20        4.206431   0.000000
 
  0.4666667E+00  0.2666667E+00  0.0000000E+00  0.1545894E-02
    1      -15.859354   1.000000
    2      -15.768230   1.000000
    3      -14.935598   1.000000
    4      -14.917205   1.000000
    5       -3.598750   1.000000
    6       -3.478153   1.000000
    7       -2.101550   1.000000
    8       -2.084242   1.000000
    9       -1.622959   1.000000
   10       -1.389006   1.000000
   11       -0.612174   1.000000
   12       -0.414853   1.000000
   13        0.195864   1.000000
   14        0.298850   1.000000
   15        0.450432   1.000000
   16        0.656967   1.000000
   17        3.522100   0.000000
   18        3.644334   0.000000
   19        4.015888   0.000000
   20        4.112775   0.000000
 
  0.3333333E+00  0.3333333E+00  0.0000000E+00  0.7729469E-03
    1      -15.976670   1.000000
    2      -15.652760   1.000000
    3      -14.954049   1.000000
    4      -14.888518   1.000000
    5       -3.774623   1.000000
    6       -3.342759   1.000000
    7       -2.128107   1.000000
    8       -2.065782   1.000000
    9       -1.923298   1.000000
   10       -1.153942   1.000000
   11       -0.667843   1.000000
   12       -0.098103   1.000000
   13        0.084496   1.000000
   14        0.143462   1.000000
   15        0.457359   1.000000
   16        0.965507   1.000000
   17        3.282483   0.000000
   18        3.754341   0.000000
   19        3.855009   0.000000
   20        4.207826   0.000000
 
  0.4000000E+00  0.3333333E+00  0.0000000E+00  0.1545894E-02
    1      -15.914412   1.000000
    2      -15.713825   1.000000
    3      -14.943878   1.000000
    4      -14.901017   1.000000
    5       -3.751965   1.000000
    6       -3.474205   1.000000
    7       -2.129441   1.000000
    8       -2.087972   1.000000
    9       -1.712850   1.000000
   10       -1.143528   1.000000
   11       -0.620329   1.000000
   12       -0.122237   1.000000
   13        0.146467   1.000000
   14        0.176186   1.000000
   15        0.415832   1.000000
   16        0.819321   1.000000
   17        3.310706   0.000000
   18        3.642430   0.000000
   19        3.876571   0.000000
   20        4.114276   0.000000
 
  0.4666667E+00  0.3333333E+00  0.0000000E+00  0.1545894E-02
    1      -15.847838   1.000000
    2      -15.779913   1.000000
    3      -14.930552   1.000000
    4      -14.915641   1.000000
    5       -3.690598   1.000000
    6       -3.595078   1.000000
    7       -2.122386   1.000000
    8       -2.107872   1.000000
    9       -1.488428   1.000000
   10       -1.278749   1.000000
   11       -0.492994   1.000000
   12       -0.309396   1.000000
   13        0.268031   1.000000
   14        0.350771   1.000000
   15        0.372259   1.000000
   16        0.613686   1.000000
   17        3.397568   0.000000
   18        3.517010   0.000000
   19        3.934174   0.000000
   20        4.017989   0.000000
 
  0.4000000E+00  0.4000000E+00  0.0000000E+00  0.7729469E-03
    1      -15.875886   1.000000
    2      -15.751968   1.000000
    3      -14.935092   1.000000
    4      -14.907083   1.000000
    5       -3.771055   1.000000
    6       -3.593799   1.000000
    7       -2.137561   1.000000
    8       -2.110112   1.000000
    9       -1.526256   1.000000
   10       -1.094405   1.000000
   11       -0.583571   1.000000
   12       -0.168296   1.000000
   13        0.208977   1.000000
   14        0.258640   1.000000
   15        0.414207   1.000000
   16        0.748947   1.000000
   17        3.270497   0.000000
   18        3.514887   0.000000
   19        3.857951   0.000000
   20        4.018733   0.000000
 
  0.4666667E+00  0.4000000E+00  0.0000000E+00  0.1545894E-02
    1      -15.834804   1.000000
    2      -15.792917   1.000000
    3      -14.925358   1.000000
    4      -14.915610   1.000000
    5       -3.749588   1.000000
    6       -3.688827   1.000000
    7       -2.136794   1.000000
    8       -2.127212   1.000000
    9       -1.331338   1.000000
   10       -1.165092   1.000000
   11       -0.500732   1.000000
   12       -0.343693   1.000000
   13        0.331491   1.000000
   14        0.385512   1.000000
   15        0.425613   1.000000
   16        0.619287   1.000000
   17        3.301199   0.000000
   18        3.391868   0.000000
   19        3.878888   0.000000
   20        3.935720   0.000000
 
  0.4666667E+00  0.4666667E+00  0.0000000E+00  0.7729469E-03
    1      -15.821009   1.000000
    2      -15.806815   1.000000
    3      -14.920778   1.000000
    4      -14.917365   1.000000
    5       -3.769700   1.000000
    6       -3.748898   1.000000
    7       -2.142731   1.000000
    8       -2.139393   1.000000
    9       -1.184775   1.000000
   10       -1.113281   1.000000
   11       -0.523140   1.000000
   12       -0.454552   1.000000
   13        0.376233   1.000000
   14        0.395050   1.000000
   15        0.536751   1.000000
   16        0.608620   1.000000
   17        3.263139   0.000000
   18        3.297553   0.000000
   19        3.859608   0.000000
   20        3.879721   0.000000
 
  0.0000000E+00  0.0000000E+00  0.4347826E-01  0.3864734E-03
    1      -16.437547   1.000000
    2      -15.308013   1.000000
    3      -14.802126   1.000000
    4      -14.802126   1.000000
    5       -3.976036   1.000000
    6       -3.548383   1.000000
    7       -3.055962   1.000000
    8       -2.111730   1.000000
    9       -2.111730   1.000000
   10       -0.845990   1.000000
   11       -0.845990   1.000000
   12       -0.318193   1.000000
   13        0.894088   1.000000
   14        1.177488   1.000000
   15        1.177488   1.000000
   16        1.581063   1.000000
   17        3.288988   0.000000
   18        3.531820   0.000000
   19        3.768251   0.000000
   20        3.868721   0.000000
 
  0.6666667E-01  0.0000000E+00  0.4347826E-01  0.1545894E-02
    1      -16.424261   1.000000
    2      -15.311505   1.000000
    3      -14.814495   1.000000
    4      -14.805784   1.000000
    5       -3.947644   1.000000
    6       -3.531400   1.000000
    7       -3.030239   1.000000
    8       -2.110712   1.000000
    9       -2.107073   1.000000
   10       -0.873500   1.000000
   11       -0.854483   1.000000
   12       -0.314870   1.000000
   13        0.855661   1.000000
   14        1.102811   1.000000
   15        1.135561   1.000000
   16        1.569604   1.000000
   17        3.314702   0.000000
   18        3.571012   0.000000
   19        3.791927   0.000000
   20        3.883597   0.000000
 
  0.1333333E+00  0.0000000E+00  0.4347826E-01  0.1545894E-02
    1      -16.384700   1.000000
    2      -15.323711   1.000000
    3      -14.848042   1.000000
    4      -14.816459   1.000000
    5       -3.866186   1.000000
    6       -3.482229   1.000000
    7       -2.951991   1.000000
    8       -2.107833   1.000000
    9       -2.093876   1.000000
   10       -0.950646   1.000000
   11       -0.881184   1.000000
   12       -0.305751   1.000000
   13        0.727283   1.000000
   14        0.920061   1.000000
   15        1.030790   1.000000
   16        1.528497   1.000000
   17        3.383733   0.000000
   18        3.668913   0.000000
   19        3.876897   0.000000
   20        3.979136   0.000000
 
  0.2000000E+00  0.0000000E+00  0.4347826E-01  0.1545894E-02
    1      -16.320223   1.000000
    2      -15.351637   1.000000
    3      -14.892699   1.000000
    4      -14.833531   1.000000
    5       -3.742599   1.000000
    6       -3.406564   1.000000
    7       -2.818433   1.000000
    8       -2.103578   1.000000
    9       -2.074193   1.000000
   10       -1.062827   1.000000
   11       -0.930160   1.000000
   12       -0.292039   1.000000
   13        0.464063   1.000000
   14        0.728148   1.000000
   15        0.910144   1.000000
   16        1.454340   1.000000
   17        3.479426   0.000000
   18        3.782641   0.000000
   19        3.979396   0.000000
   20        4.041385   0.000000
 
  0.2666667E+00  0.0000000E+00  0.4347826E-01  0.1545894E-02
    1      -16.232855   1.000000
    2      -15.404992   1.000000
    3      -14.933248   1.000000
    4      -14.855459   1.000000
    5       -3.593751   1.000000
    6       -3.315073   1.000000
    7       -2.627207   1.000000
    8       -2.098651   1.000000
    9       -2.050061   1.000000
   10       -1.189266   1.000000
   11       -1.006793   1.000000
   12       -0.271236   1.000000
   13        0.093901   1.000000
   14        0.551314   1.000000
   15        0.819456   1.000000
   16        1.353205   1.000000
   17        3.586196   0.000000
   18        3.873562   0.000000
   19        4.095492   0.000000
   20        4.167994   0.000000
 
  0.3333333E+00  0.0000000E+00  0.4347826E-01  0.1545894E-02
    1      -16.125540   1.000000
    2      -15.490099   1.000000
    3      -14.957063   1.000000