       N       E                     dE             d eps       ncg     rms          rms(c)
DAV:   1     0.374405859269E+03    0.37441E+03   -0.14264E+04 17400   0.153E+03
DAV:   2     0.266172522735E+01   -0.37174E+03   -0.35995E+03 22668   0.366E+02
DAV:   3    -0.681012143256E+02   -0.70763E+02   -0.69238E+02 22848   0.184E+02
DAV:   4    -0.710247823354E+02   -0.29236E+01   -0.29194E+01 21360   0.425E+01
DAV:   5    -0.711081936753E+02   -0.83411E-01   -0.83389E-01 21668   0.725E+00    0.403E+01
RMM:   6    -0.546976954026E+02    0.16410E+02   -0.12244E+02 18171   0.694E+01    0.144E+01
RMM:   7    -0.530694886804E+02    0.16282E+01   -0.66173E+00 17330   0.205E+01    0.100E+01
RMM:   8    -0.528872889090E+02    0.18220E+00   -0.24345E+00 17553   0.142E+01    0.358E+00
RMM:   9    -0.528285128845E+02    0.58776E-01   -0.30603E-01 18702   0.453E+00    0.642E-01
RMM:  10    -0.528404561063E+02   -0.11943E-01   -0.22885E-01 20676   0.318E+00    0.103E+00
RMM:  11    -0.528198998121E+02    0.20556E-01   -0.10794E-01 19604   0.216E+00    0.106E-01
RMM:  12    -0.528196952558E+02    0.20456E-03   -0.27090E-03 21090   0.431E-01    0.105E-01
RMM:  13    -0.528197693102E+02   -0.74054E-04   -0.35818E-03 20511   0.437E-01    0.116E-01
RMM:  14    -0.528195673273E+02    0.20198E-03   -0.42862E-04 20521   0.172E-01    0.306E-02
RMM:  15    -0.528195755526E+02   -0.82253E-05   -0.18934E-04 20842   0.825E-02    0.175E-02
RMM:  16    -0.528195692549E+02    0.62978E-05   -0.15965E-05 20744   0.308E-02    0.465E-03
RMM:  17    -0.528195691951E+02    0.59792E-07   -0.31713E-06 21177   0.113E-02    0.796E-04
RMM:  18    -0.528195692275E+02   -0.32459E-07   -0.21029E-07 20706   0.508E-03    0.181E-03
RMM:  19    -0.528195692797E+02   -0.52125E-07   -0.82848E-08 18533   0.179E-03    0.204E-03
RMM:  20    -0.528195692526E+02    0.27100E-07   -0.13535E-07 19415   0.253E-03    0.609E-04
RMM:  21    -0.528195692542E+02   -0.16571E-08   -0.10800E-08 13805   0.814E-04
   1 F= -.52819569E+02 E0= -.52819569E+02  d E =-.174857E-18
