 vasp.5.4.4.18Apr17-6-g9f103f2a35 (build Jun 26 2021 01:31:14) complex          
  
 executed on             LinuxIFC date 2022.04.20  15:01:42
 running on   48 total cores
 distrk:  each k-point on   48 cores,    1 groups
 distr:  one band on NCORES_PER_BAND=  12 cores,    4 groups


--------------------------------------------------------------------------------------------------------


 INCAR:
 POTCAR:    PAW_PBE Ti 08Apr2002                  
 POTCAR:    PAW_PBE O 08Apr2002                   
 POTCAR:    PAW_PBE Ti 08Apr2002                  
  local pseudopotential read in
  partial core-charges read in
  partial kinetic energy density read in
  atomic valenz-charges read in
  non local Contribution for L=           2  read in
    real space projection operators read in
  non local Contribution for L=           2  read in
    real space projection operators read in
  non local Contribution for L=           0  read in
    real space projection operators read in
  non local Contribution for L=           0  read in
    real space projection operators read in
  non local Contribution for L=           1  read in
    real space projection operators read in
    PAW grid and wavefunctions read in
 
   number of l-projection  operators is LMAX  =           5
   number of lm-projection operators is LMMAX =          15
 
 POTCAR:    PAW_PBE O 08Apr2002                   
  local pseudopotential read in
  partial core-charges read in
  partial kinetic energy density read in
  kinetic energy density of atom read in
  atomic valenz-charges read in
  non local Contribution for L=           0  read in
    real space projection operators read in
  non local Contribution for L=           0  read in
    real space projection operators read in
  non local Contribution for L=           1  read in
    real space projection operators read in
  non local Contribution for L=           1  read in
    real space projection operators read in
    PAW grid and wavefunctions read in
 
   number of l-projection  operators is LMAX  =           4
   number of lm-projection operators is LMMAX =           8
 
  PAW_PBE Ti 08Apr2002                  :
 energy of atom  1       EATOM=  -94.7928
 kinetic energy error for atom=    0.0002 (will be added to EATOM!!)
  PAW_PBE O 08Apr2002                   :
 energy of atom  2       EATOM= -432.3788
 kinetic energy error for atom=    0.0224 (will be added to EATOM!!)
 
 
 POSCAR: Ti  O                                   
  positions in cartesian coordinates
  No initial velocities read in
 exchange correlation table for  LEXCH =        8
   RHO(1)=    0.500       N(1)  =     2000
   RHO(2)=  100.500       N(2)  =     4000
 


--------------------------------------------------------------------------------------------------------


 ion  position               nearest neighbor table
   1  0.000  0.000  0.000-   3 1.97   4 1.97   3 1.97   4 1.97   5 2.01   6 2.01
   2  0.500  0.500  0.500-   5 1.97   6 1.97   5 1.97   6 1.97   3 2.01   4 2.01
   3  0.195  0.805  0.500-   1 1.97   1 1.97   2 2.01
   4  0.805  0.195  0.500-   1 1.97   1 1.97   2 2.01
   5  0.695  0.695  0.000-   2 1.97   2 1.97   1 2.01
   6  0.305  0.305  0.000-   2 1.97   2 1.97   1 2.01
 
  LATTYP: Found a simple tetragonal cell.
 ALAT       =     4.6617898557
 C/A-ratio  =     0.6368372177
  
  Lattice vectors:
  
 A1 = (   4.6617898557,   0.0000000000,   0.0000000000)
 A2 = (   0.0000000000,   4.6617898557,   0.0000000000)
 A3 = (   0.0000000000,   0.0000000000,   2.9688012812)


Analysis of symmetry for initial positions (statically):
=====================================================================
 Subroutine PRICEL returns:
 Original cell was already a primitive cell.
 

 Routine SETGRP: Setting up the symmetry group for a 
 simple tetragonal supercell.


 Subroutine GETGRP returns: Found 16 space group operations
 (whereof  8 operations were pure point group operations)
 out of a pool of 16 trial point group operations.


The static configuration has the point symmetry D_2h.
 The point group associated with its full space group is D_4h.


Analysis of symmetry for dynamics (positions and initial velocities):
=====================================================================
 Subroutine PRICEL returns:
 Original cell was already a primitive cell.
 

 Routine SETGRP: Setting up the symmetry group for a 
 simple tetragonal supercell.


 Subroutine GETGRP returns: Found 16 space group operations
 (whereof  8 operations were pure point group operations)
 out of a pool of 16 trial point group operations.


The dynamic configuration has the point symmetry D_2h.
 The point group associated with its full space group is D_4h.


 Subroutine INISYM returns: Found 16 space group operations
 (whereof  8 operations are pure point group operations),
 and found     1 'primitive' translations

 
 
 KPOINTS: KPOINTS created by Atomic Simulation Env

Automatic generation of k-mesh.
Space group operators:
 irot       det(A)        alpha          n_x          n_y          n_z        tau_x        tau_y        tau_z
    1     1.000000     0.000001     1.000000     0.000000     0.000000     0.000000     0.000000     0.000000
    2    -1.000000     0.000001     1.000000     0.000000     0.000000     0.000000     0.000000     0.000000
    3     1.000000   180.000000     0.000000     0.000000     1.000000     0.000000     0.000000     0.000000
    4    -1.000000   180.000000     0.000000     0.000000     1.000000     0.000000     0.000000     0.000000
    5     1.000000   180.000000     0.707107     0.707107     0.000000     0.000000     0.000000     0.000000
    6    -1.000000   180.000000     0.707107     0.707107     0.000000     0.000000     0.000000     0.000000
    7     1.000000   180.000000     0.707107    -0.707107     0.000000     0.000000     0.000000     0.000000
    8    -1.000000   180.000000     0.707107    -0.707107     0.000000     0.000000     0.000000     0.000000
    9     1.000000    90.000000     0.000000     0.000000    -1.000000     0.500000     0.500000     0.500000
   10    -1.000000    90.000000     0.000000     0.000000    -1.000000     0.500000     0.500000     0.500000
   11     1.000000    90.000000     0.000000     0.000000     1.000000     0.500000     0.500000     0.500000
   12    -1.000000    90.000000     0.000000     0.000000     1.000000     0.500000     0.500000     0.500000
   13     1.000000   180.000000     0.000000     1.000000     0.000000     0.500000     0.500000     0.500000
   14    -1.000000   180.000000     0.000000     1.000000     0.000000     0.500000     0.500000     0.500000
   15     1.000000   180.000000     1.000000     0.000000     0.000000     0.500000     0.500000     0.500000
   16    -1.000000   180.000000     1.000000     0.000000     0.000000     0.500000     0.500000     0.500000
 
 Subroutine IBZKPT returns following result:
 ===========================================
 
 Found    432 irreducible k-points:
 
 Following reciprocal coordinates:
            Coordinates               Weight
  0.000000  0.000000  0.000000      1.000000
  0.066667  0.000000  0.000000      4.000000
  0.133333  0.000000  0.000000      4.000000
  0.200000  0.000000  0.000000      4.000000
  0.266667  0.000000  0.000000      4.000000
  0.333333  0.000000  0.000000      4.000000
  0.400000  0.000000  0.000000      4.000000
  0.466667  0.000000  0.000000      4.000000
  0.066667  0.066667  0.000000      4.000000
  0.133333  0.066667  0.000000      8.000000
  0.200000  0.066667  0.000000      8.000000
  0.266667  0.066667  0.000000      8.000000
  0.333333  0.066667  0.000000      8.000000
  0.400000  0.066667  0.000000      8.000000
  0.466667  0.066667  0.000000      8.000000
  0.133333  0.133333  0.000000      4.000000
  0.200000  0.133333  0.000000      8.000000
  0.266667  0.133333  0.000000      8.000000
  0.333333  0.133333  0.000000      8.000000
  0.400000  0.133333  0.000000      8.000000
  0.466667  0.133333  0.000000      8.000000
  0.200000  0.200000  0.000000      4.000000
  0.266667  0.200000  0.000000      8.000000
  0.333333  0.200000  0.000000      8.000000
  0.400000  0.200000  0.000000      8.000000
  0.466667  0.200000  0.000000      8.000000
  0.266667  0.266667  0.000000      4.000000
  0.333333  0.266667  0.000000      8.000000
  0.400000  0.266667  0.000000      8.000000
  0.466667  0.266667  0.000000      8.000000
  0.333333  0.333333  0.000000      4.000000
  0.400000  0.333333  0.000000      8.000000
  0.466667  0.333333  0.000000      8.000000
  0.400000  0.400000  0.000000      4.000000
  0.466667  0.400000  0.000000      8.000000
  0.466667  0.466667  0.000000      4.000000
  0.000000  0.000000  0.043478      2.000000
  0.066667  0.000000  0.043478      8.000000
  0.133333  0.000000  0.043478      8.000000
  0.200000  0.000000  0.043478      8.000000
  0.266667  0.000000  0.043478      8.000000
  0.333333  0.000000  0.043478      8.000000
  0.400000  0.000000  0.043478      8.000000
  0.466667  0.000000  0.043478      8.000000
  0.066667  0.066667  0.043478      8.000000
  0.133333  0.066667  0.043478     16.000000
  0.200000  0.066667  0.043478     16.000000
  0.266667  0.066667  0.043478     16.000000
  0.333333  0.066667  0.043478     16.000000
  0.400000  0.066667  0.043478     16.000000
  0.466667  0.066667  0.043478     16.000000
  0.133333  0.133333  0.043478      8.000000
  0.200000  0.133333  0.043478     16.000000
  0.266667  0.133333  0.043478     16.000000
  0.333333  0.133333  0.043478     16.000000
  0.400000  0.133333  0.043478     16.000000
  0.466667  0.133333  0.043478     16.000000
  0.200000  0.200000  0.043478      8.000000
  0.266667  0.200000  0.043478     16.000000
  0.333333  0.200000  0.043478     16.000000
  0.400000  0.200000  0.043478     16.000000
  0.466667  0.200000  0.043478     16.000000
  0.266667  0.266667  0.043478      8.000000
  0.333333  0.266667  0.043478     16.000000
  0.400000  0.266667  0.043478     16.000000
  0.466667  0.266667  0.043478     16.000000
  0.333333  0.333333  0.043478      8.000000
  0.400000  0.333333  0.043478     16.000000
  0.466667  0.333333  0.043478     16.000000
  0.400000  0.400000  0.043478      8.000000
  0.466667  0.400000  0.043478     16.000000
  0.466667  0.466667  0.043478      8.000000
  0.000000  0.000000  0.086957      2.000000
  0.066667  0.000000  0.086957      8.000000
  0.133333  0.000000  0.086957      8.000000
  0.200000  0.000000  0.086957      8.000000
  0.266667  0.000000  0.086957      8.000000
  0.333333  0.000000  0.086957      8.000000
  0.400000  0.000000  0.086957      8.000000
  0.466667  0.000000  0.086957      8.000000
  0.066667  0.066667  0.086957      8.000000
  0.133333  0.066667  0.086957     16.000000
  0.200000  0.066667  0.086957     16.000000
  0.266667  0.066667  0.086957     16.000000
  0.333333  0.066667  0.086957     16.000000
  0.400000  0.066667  0.086957     16.000000
  0.466667  0.066667  0.086957     16.000000
  0.133333  0.133333  0.086957      8.000000
  0.200000  0.133333  0.086957     16.000000
  0.266667  0.133333  0.086957     16.000000
  0.333333  0.133333  0.086957     16.000000
  0.400000  0.133333  0.086957     16.000000
  0.466667  0.133333  0.086957     16.000000
  0.200000  0.200000  0.086957      8.000000
  0.266667  0.200000  0.086957     16.000000
  0.333333  0.200000  0.086957     16.000000
  0.400000  0.200000  0.086957     16.000000
  0.466667  0.200000  0.086957     16.000000
  0.266667  0.266667  0.086957      8.000000
  0.333333  0.266667  0.086957     16.000000
  0.400000  0.266667  0.086957     16.000000
  0.466667  0.266667  0.086957     16.000000
  0.333333  0.333333  0.086957      8.000000
  0.400000  0.333333  0.086957     16.000000
  0.466667  0.333333  0.086957     16.000000
  0.400000  0.400000  0.086957      8.000000
  0.466667  0.400000  0.086957     16.000000
  0.466667  0.466667  0.086957      8.000000
  0.000000  0.000000  0.130435      2.000000
  0.066667  0.000000  0.130435      8.000000
  0.133333  0.000000  0.130435      8.000000
  0.200000  0.000000  0.130435      8.000000
  0.266667  0.000000  0.130435      8.000000
  0.333333  0.000000  0.130435      8.000000
  0.400000  0.000000  0.130435      8.000000
  0.466667  0.000000  0.130435      8.000000
  0.066667  0.066667  0.130435      8.000000
  0.133333  0.066667  0.130435     16.000000
  0.200000  0.066667  0.130435     16.000000
  0.266667  0.066667  0.130435     16.000000
  0.333333  0.066667  0.130435     16.000000
  0.400000  0.066667  0.130435     16.000000
  0.466667  0.066667  0.130435     16.000000
  0.133333  0.133333  0.130435      8.000000
  0.200000  0.133333  0.130435     16.000000
  0.266667  0.133333  0.130435     16.000000
  0.333333  0.133333  0.130435     16.000000
  0.400000  0.133333  0.130435     16.000000
  0.466667  0.133333  0.130435     16.000000
  0.200000  0.200000  0.130435      8.000000
  0.266667  0.200000  0.130435     16.000000
  0.333333  0.200000  0.130435     16.000000
  0.400000  0.200000  0.130435     16.000000
  0.466667  0.200000  0.130435     16.000000
  0.266667  0.266667  0.130435      8.000000
  0.333333  0.266667  0.130435     16.000000
  0.400000  0.266667  0.130435     16.000000
  0.466667  0.266667  0.130435     16.000000
  0.333333  0.333333  0.130435      8.000000
  0.400000  0.333333  0.130435     16.000000
  0.466667  0.333333  0.130435     16.000000
  0.400000  0.400000  0.130435      8.000000
  0.466667  0.400000  0.130435     16.000000
  0.466667  0.466667  0.130435      8.000000
  0.000000  0.000000  0.173913      2.000000
  0.066667  0.000000  0.173913      8.000000
  0.133333  0.000000  0.173913      8.000000
  0.200000  0.000000  0.173913      8.000000
  0.266667  0.000000  0.173913      8.000000
  0.333333  0.000000  0.173913      8.000000
  0.400000  0.000000  0.173913      8.000000
  0.466667  0.000000  0.173913      8.000000
  0.066667  0.066667  0.173913      8.000000
  0.133333  0.066667  0.173913     16.000000
  0.200000  0.066667  0.173913     16.000000
  0.266667  0.066667  0.173913     16.000000
  0.333333  0.066667  0.173913     16.000000
  0.400000  0.066667  0.173913     16.000000
  0.466667  0.066667  0.173913     16.000000
  0.133333  0.133333  0.173913      8.000000
  0.200000  0.133333  0.173913     16.000000
  0.266667  0.133333  0.173913     16.000000
  0.333333  0.133333  0.173913     16.000000
  0.400000  0.133333  0.173913     16.000000
  0.466667  0.133333  0.173913     16.000000
  0.200000  0.200000  0.173913      8.000000
  0.266667  0.200000  0.173913     16.000000
  0.333333  0.200000  0.173913     16.000000
  0.400000  0.200000  0.173913     16.000000
  0.466667  0.200000  0.173913     16.000000
  0.266667  0.266667  0.173913      8.000000
  0.333333  0.266667  0.173913     16.000000
  0.400000  0.266667  0.173913     16.000000
  0.466667  0.266667  0.173913     16.000000
  0.333333  0.333333  0.173913      8.000000
  0.400000  0.333333  0.173913     16.000000
  0.466667  0.333333  0.173913     16.000000
  0.400000  0.400000  0.173913      8.000000
  0.466667  0.400000  0.173913     16.000000
  0.466667  0.466667  0.173913      8.000000
  0.000000  0.000000  0.217391      2.000000
  0.066667  0.000000  0.217391      8.000000
  0.133333  0.000000  0.217391      8.000000
  0.200000  0.000000  0.217391      8.000000
  0.266667  0.000000  0.217391      8.000000
  0.333333  0.000000  0.217391      8.000000
  0.400000  0.000000  0.217391      8.000000
  0.466667  0.000000  0.217391      8.000000
  0.066667  0.066667  0.217391      8.000000
  0.133333  0.066667  0.217391     16.000000
  0.200000  0.066667  0.217391     16.000000
  0.266667  0.066667  0.217391     16.000000
  0.333333  0.066667  0.217391     16.000000
  0.400000  0.066667  0.217391     16.000000
  0.466667  0.066667  0.217391     16.000000
  0.133333  0.133333  0.217391      8.000000
  0.200000  0.133333  0.217391     16.000000
  0.266667  0.133333  0.217391     16.000000
  0.333333  0.133333  0.217391     16.000000
  0.400000  0.133333  0.217391     16.000000
  0.466667  0.133333  0.217391     16.000000
  0.200000  0.200000  0.217391      8.000000
  0.266667  0.200000  0.217391     16.000000
  0.333333  0.200000  0.217391     16.000000
  0.400000  0.200000  0.217391     16.000000
  0.466667  0.200000  0.217391     16.000000
  0.266667  0.266667  0.217391      8.000000
  0.333333  0.266667  0.217391     16.000000
  0.400000  0.266667  0.217391     16.000000
  0.466667  0.266667  0.217391     16.000000
  0.333333  0.333333  0.217391      8.000000
  0.400000  0.333333  0.217391     16.000000
  0.466667  0.333333  0.217391     16.000000
  0.400000  0.400000  0.217391      8.000000
  0.466667  0.400000  0.217391     16.000000
  0.466667  0.466667  0.217391      8.000000
  0.000000  0.000000  0.260870      2.000000
  0.066667  0.000000  0.260870      8.000000
  0.133333  0.000000  0.260870      8.000000
  0.200000  0.000000  0.260870      8.000000
  0.266667  0.000000  0.260870      8.000000
  0.333333  0.000000  0.260870      8.000000
  0.400000  0.000000  0.260870      8.000000
  0.466667  0.000000  0.260870      8.000000
  0.066667  0.066667  0.260870      8.000000
  0.133333  0.066667  0.260870     16.000000
  0.200000  0.066667  0.260870     16.000000
  0.266667  0.066667  0.260870     16.000000
  0.333333  0.066667  0.260870     16.000000
  0.400000  0.066667  0.260870     16.000000
  0.466667  0.066667  0.260870     16.000000
  0.133333  0.133333  0.260870      8.000000
  0.200000  0.133333  0.260870     16.000000
  0.266667  0.133333  0.260870     16.000000
  0.333333  0.133333  0.260870     16.000000
  0.400000  0.133333  0.260870     16.000000
  0.466667  0.133333  0.260870     16.000000
  0.200000  0.200000  0.260870      8.000000
  0.266667  0.200000  0.260870     16.000000
  0.333333  0.200000  0.260870     16.000000
  0.400000  0.200000  0.260870     16.000000
  0.466667  0.200000  0.260870     16.000000
  0.266667  0.266667  0.260870      8.000000
  0.333333  0.266667  0.260870     16.000000
  0.400000  0.266667  0.260870     16.000000
  0.466667  0.266667  0.260870     16.000000
  0.333333  0.333333  0.260870      8.000000
  0.400000  0.333333  0.260870     16.000000
  0.466667  0.333333  0.260870     16.000000
  0.400000  0.400000  0.260870      8.000000
  0.466667  0.400000  0.260870     16.000000
  0.466667  0.466667  0.260870      8.000000
  0.000000  0.000000  0.304348      2.000000
  0.066667  0.000000  0.304348      8.000000
  0.133333  0.000000  0.304348      8.000000
  0.200000  0.000000  0.304348      8.000000
  0.266667  0.000000  0.304348      8.000000
  0.333333  0.000000  0.304348      8.000000
  0.400000  0.000000  0.304348      8.000000
  0.466667  0.000000  0.304348      8.000000
  0.066667  0.066667  0.304348      8.000000
  0.133333  0.066667  0.304348     16.000000
  0.200000  0.066667  0.304348     16.000000
  0.266667  0.066667  0.304348     16.000000
  0.333333  0.066667  0.304348     16.000000
  0.400000  0.066667  0.304348     16.000000
  0.466667  0.066667  0.304348     16.000000
  0.133333  0.133333  0.304348      8.000000
  0.200000  0.133333  0.304348     16.000000
  0.266667  0.133333  0.304348     16.000000
  0.333333  0.133333  0.304348     16.000000
  0.400000  0.133333  0.304348     16.000000
  0.466667  0.133333  0.304348     16.000000
  0.200000  0.200000  0.304348      8.000000
  0.266667  0.200000  0.304348     16.000000
  0.333333  0.200000  0.304348     16.000000
  0.400000  0.200000  0.304348     16.000000
  0.466667  0.200000  0.304348     16.000000
  0.266667  0.266667  0.304348      8.000000
  0.333333  0.266667  0.304348     16.000000
  0.400000  0.266667  0.304348     16.000000
  0.466667  0.266667  0.304348     16.000000
  0.333333  0.333333  0.304348      8.000000
  0.400000  0.333333  0.304348     16.000000
  0.466667  0.333333  0.304348     16.000000
  0.400000  0.400000  0.304348      8.000000
  0.466667  0.400000  0.304348     16.000000
  0.466667  0.466667  0.304348      8.000000
  0.000000  0.000000  0.347826      2.000000
  0.066667  0.000000  0.347826      8.000000
  0.133333  0.000000  0.347826      8.000000
  0.200000  0.000000  0.347826      8.000000
  0.266667  0.000000  0.347826      8.000000
  0.333333  0.000000  0.347826      8.000000
  0.400000  0.000000  0.347826      8.000000
  0.466667  0.000000  0.347826      8.000000
  0.066667  0.066667  0.347826      8.000000
  0.133333  0.066667  0.347826     16.000000
  0.200000  0.066667  0.347826     16.000000
  0.266667  0.066667  0.347826     16.000000
  0.333333  0.066667  0.347826     16.000000
  0.400000  0.066667  0.347826     16.000000
  0.466667  0.066667  0.347826     16.000000
  0.133333  0.133333  0.347826      8.000000
  0.200000  0.133333  0.347826     16.000000
  0.266667  0.133333  0.347826     16.000000
  0.333333  0.133333  0.347826     16.000000
  0.400000  0.133333  0.347826     16.000000
  0.466667  0.133333  0.347826     16.000000
  0.200000  0.200000  0.347826      8.000000
  0.266667  0.200000  0.347826     16.000000
  0.333333  0.200000  0.347826     16.000000
  0.400000  0.200000  0.347826     16.000000
  0.466667  0.200000  0.347826     16.000000
  0.266667  0.266667  0.347826      8.000000
  0.333333  0.266667  0.347826     16.000000
  0.400000  0.266667  0.347826     16.000000
  0.466667  0.266667  0.347826     16.000000
  0.333333  0.333333  0.347826      8.000000
  0.400000  0.333333  0.347826     16.000000
  0.466667  0.333333  0.347826     16.000000
  0.400000  0.400000  0.347826      8.000000
  0.466667  0.400000  0.347826     16.000000
  0.466667  0.466667  0.347826      8.000000
  0.000000  0.000000  0.391304      2.000000
  0.066667  0.000000  0.391304      8.000000
  0.133333  0.000000  0.391304      8.000000
  0.200000  0.000000  0.391304      8.000000
  0.266667  0.000000  0.391304      8.000000
  0.333333  0.000000  0.391304      8.000000
  0.400000  0.000000  0.391304      8.000000
  0.466667  0.000000  0.391304      8.000000
  0.066667  0.066667  0.391304      8.000000
  0.133333  0.066667  0.391304     16.000000
  0.200000  0.066667  0.391304     16.000000
  0.266667  0.066667  0.391304     16.000000
  0.333333  0.066667  0.391304     16.000000
  0.400000  0.066667  0.391304     16.000000
  0.466667  0.066667  0.391304     16.000000
  0.133333  0.133333  0.391304      8.000000
  0.200000  0.133333  0.391304     16.000000
  0.266667  0.133333  0.391304     16.000000
  0.333333  0.133333  0.391304     16.000000
  0.400000  0.133333  0.391304     16.000000
  0.466667  0.133333  0.391304     16.000000
  0.200000  0.200000  0.391304      8.000000
  0.266667  0.200000  0.391304     16.000000
  0.333333  0.200000  0.391304     16.000000
  0.400000  0.200000  0.391304     16.000000
  0.466667  0.200000  0.391304     16.000000
  0.266667  0.266667  0.391304      8.000000
  0.333333  0.266667  0.391304     16.000000
  0.400000  0.266667  0.391304     16.000000
  0.466667  0.266667  0.391304     16.000000
  0.333333  0.333333  0.391304      8.000000
  0.400000  0.333333  0.391304     16.000000
  0.466667  0.333333  0.391304     16.000000
  0.400000  0.400000  0.391304      8.000000
  0.466667  0.400000  0.391304     16.000000
  0.466667  0.466667  0.391304      8.000000
  0.000000  0.000000  0.434783      2.000000
  0.066667  0.000000  0.434783      8.000000
  0.133333  0.000000  0.434783      8.000000
  0.200000  0.000000  0.434783      8.000000
  0.266667  0.000000  0.434783      8.000000
  0.333333  0.000000  0.434783      8.000000
  0.400000  0.000000  0.434783      8.000000
  0.466667  0.000000  0.434783      8.000000
  0.066667  0.066667  0.434783      8.000000
  0.133333  0.066667  0.434783     16.000000
  0.200000  0.066667  0.434783     16.000000
  0.266667  0.066667  0.434783     16.000000
  0.333333  0.066667  0.434783     16.000000
  0.400000  0.066667  0.434783     16.000000
  0.466667  0.066667  0.434783     16.000000
  0.133333  0.133333  0.434783      8.000000
  0.200000  0.133333  0.434783     16.000000
  0.266667  0.133333  0.434783     16.000000
  0.333333  0.133333  0.434783     16.000000
  0.400000  0.133333  0.434783     16.000000
  0.466667  0.133333  0.434783     16.000000
  0.200000  0.200000  0.434783      8.000000
  0.266667  0.200000  0.434783     16.000000
  0.333333  0.200000  0.434783     16.000000
  0.400000  0.200000  0.434783     16.000000
  0.466667  0.200000  0.434783     16.000000
  0.266667  0.266667  0.434783      8.000000
  0.333333  0.266667  0.434783     16.000000
  0.400000  0.266667  0.434783     16.000000
  0.466667  0.266667  0.434783     16.000000
  0.333333  0.333333  0.434783      8.000000
  0.400000  0.333333  0.434783     16.000000
  0.466667  0.333333  0.434783     16.000000
  0.400000  0.400000  0.434783      8.000000
  0.466667  0.400000  0.434783     16.000000
  0.466667  0.466667  0.434783      8.000000
  0.000000  0.000000  0.478261      2.000000
  0.066667  0.000000  0.478261      8.000000
  0.133333  0.000000  0.478261      8.000000
  0.200000  0.000000  0.478261      8.000000
  0.266667  0.000000  0.478261      8.000000
  0.333333  0.000000  0.478261      8.000000
  0.400000  0.000000  0.478261      8.000000
  0.466667  0.000000  0.478261      8.000000
  0.066667  0.066667  0.478261      8.000000
  0.133333  0.066667  0.478261     16.000000
  0.200000  0.066667  0.478261     16.000000
  0.266667  0.066667  0.478261     16.000000
  0.333333  0.066667  0.478261     16.000000
  0.400000  0.066667  0.478261     16.000000
  0.466667  0.066667  0.478261     16.000000
  0.133333  0.133333  0.478261      8.000000
  0.200000  0.133333  0.478261     16.000000
  0.266667  0.133333  0.478261     16.000000
  0.333333  0.133333  0.478261     16.000000
  0.400000  0.133333  0.478261     16.000000
  0.466667  0.133333  0.478261     16.000000
  0.200000  0.200000  0.478261      8.000000
  0.266667  0.200000  0.478261     16.000000
  0.333333  0.200000  0.478261     16.000000
  0.400000  0.200000  0.478261     16.000000
  0.466667  0.200000  0.478261     16.000000
  0.266667  0.266667  0.478261      8.000000
  0.333333  0.266667  0.478261     16.000000
  0.400000  0.266667  0.478261     16.000000
  0.466667  0.266667  0.478261     16.000000
  0.333333  0.333333  0.478261      8.000000
  0.400000  0.333333  0.478261     16.000000
  0.466667  0.333333  0.478261     16.000000
  0.400000  0.400000  0.478261      8.000000
  0.466667  0.400000  0.478261     16.000000
  0.466667  0.466667  0.478261      8.000000
 
 Following cartesian coordinates:
            Coordinates               Weight
  0.000000  0.000000  0.000000      1.000000
  0.014301  0.000000  0.000000      4.000000
  0.028601  0.000000  0.000000      4.000000
  0.042902  0.000000  0.000000      4.000000
  0.057203  0.000000  0.000000      4.000000
  0.071503  0.000000  0.000000      4.000000
  0.085804  0.000000  0.000000      4.000000
  0.100105  0.000000  0.000000      4.000000
  0.014301  0.014301  0.000000      4.000000
  0.028601  0.014301  0.000000      8.000000
  0.042902  0.014301  0.000000      8.000000
  0.057203  0.014301  0.000000      8.000000
  0.071503  0.014301  0.000000      8.000000
  0.085804  0.014301  0.000000      8.000000
  0.100105  0.014301  0.000000      8.000000
  0.028601  0.028601  0.000000      4.000000
  0.042902  0.028601  0.000000      8.000000
  0.057203  0.028601  0.000000      8.000000
  0.071503  0.028601  0.000000      8.000000
  0.085804  0.028601  0.000000      8.000000
  0.100105  0.028601  0.000000      8.000000
  0.042902  0.042902  0.000000      4.000000
  0.057203  0.042902  0.000000      8.000000
  0.071503  0.042902  0.000000      8.000000
  0.085804  0.042902  0.000000      8.000000
  0.100105  0.042902  0.000000      8.000000
  0.057203  0.057203  0.000000      4.000000
  0.071503  0.057203  0.000000      8.000000
  0.085804  0.057203  0.000000      8.000000
  0.100105  0.057203  0.000000      8.000000
  0.071503  0.071503  0.000000      4.000000
  0.085804  0.071503  0.000000      8.000000
  0.100105  0.071503  0.000000      8.000000
  0.085804  0.085804  0.000000      4.000000
  0.100105  0.085804  0.000000      8.000000
  0.100105  0.100105  0.000000      4.000000
  0.000000  0.000000  0.014645      2.000000
  0.014301  0.000000  0.014645      8.000000
  0.028601  0.000000  0.014645      8.000000
  0.042902  0.000000  0.014645      8.000000
  0.057203  0.000000  0.014645      8.000000
  0.071503  0.000000  0.014645      8.000000
  0.085804  0.000000  0.014645      8.000000
  0.100105  0.000000  0.014645      8.000000
  0.014301  0.014301  0.014645      8.000000
  0.028601  0.014301  0.014645     16.000000
  0.042902  0.014301  0.014645     16.000000
  0.057203  0.014301  0.014645     16.000000
  0.071503  0.014301  0.014645     16.000000
  0.085804  0.014301  0.014645     16.000000
  0.100105  0.014301  0.014645     16.000000
  0.028601  0.028601  0.014645      8.000000
  0.042902  0.028601  0.014645     16.000000
  0.057203  0.028601  0.014645     16.000000
  0.071503  0.028601  0.014645     16.000000
  0.085804  0.028601  0.014645     16.000000
  0.100105  0.028601  0.014645     16.000000
  0.042902  0.042902  0.014645      8.000000
  0.057203  0.042902  0.014645     16.000000
  0.071503  0.042902  0.014645     16.000000
  0.085804  0.042902  0.014645     16.000000
  0.100105  0.042902  0.014645     16.000000
  0.057203  0.057203  0.014645      8.000000
  0.071503  0.057203  0.014645     16.000000
  0.085804  0.057203  0.014645     16.000000
  0.100105  0.057203  0.014645     16.000000
  0.071503  0.071503  0.014645      8.000000
  0.085804  0.071503  0.014645     16.000000
  0.100105  0.071503  0.014645     16.000000
  0.085804  0.085804  0.014645      8.000000
  0.100105  0.085804  0.014645     16.000000
  0.100105  0.100105  0.014645      8.000000
  0.000000  0.000000  0.029290      2.000000
  0.014301  0.000000  0.029290      8.000000
  0.028601  0.000000  0.029290      8.000000
  0.042902  0.000000  0.029290      8.000000
  0.057203  0.000000  0.029290      8.000000
  0.071503  0.000000  0.029290      8.000000
  0.085804  0.000000  0.029290      8.000000
  0.100105  0.000000  0.029290      8.000000
  0.014301  0.014301  0.029290      8.000000
  0.028601  0.014301  0.029290     16.000000
  0.042902  0.014301  0.029290     16.000000
  0.057203  0.014301  0.029290     16.000000
  0.071503  0.014301  0.029290     16.000000
  0.085804  0.014301  0.029290     16.000000
  0.100105  0.014301  0.029290     16.000000
  0.028601  0.028601  0.029290      8.000000
  0.042902  0.028601  0.029290     16.000000
  0.057203  0.028601  0.029290     16.000000
  0.071503  0.028601  0.029290     16.000000
  0.085804  0.028601  0.029290     16.000000
  0.100105  0.028601  0.029290     16.000000
  0.042902  0.042902  0.029290      8.000000
  0.057203  0.042902  0.029290     16.000000
  0.071503  0.042902  0.029290     16.000000
  0.085804  0.042902  0.029290     16.000000
  0.100105  0.042902  0.029290     16.000000
  0.057203  0.057203  0.029290      8.000000
  0.071503  0.057203  0.029290     16.000000
  0.085804  0.057203  0.029290     16.000000
  0.100105  0.057203  0.029290     16.000000
  0.071503  0.071503  0.029290      8.000000
  0.085804  0.071503  0.029290     16.000000
  0.100105  0.071503  0.029290     16.000000
  0.085804  0.085804  0.029290      8.000000
  0.100105  0.085804  0.029290     16.000000
  0.100105  0.100105  0.029290      8.000000
  0.000000  0.000000  0.043935      2.000000
  0.014301  0.000000  0.043935      8.000000
  0.028601  0.000000  0.043935      8.000000
  0.042902  0.000000  0.043935      8.000000
  0.057203  0.000000  0.043935      8.000000
  0.071503  0.000000  0.043935      8.000000
  0.085804  0.000000  0.043935      8.000000
  0.100105  0.000000  0.043935      8.000000
  0.014301  0.014301  0.043935      8.000000
  0.028601  0.014301  0.043935     16.000000
  0.042902  0.014301  0.043935     16.000000
  0.057203  0.014301  0.043935     16.000000
  0.071503  0.014301  0.043935     16.000000
  0.085804  0.014301  0.043935     16.000000
  0.100105  0.014301  0.043935     16.000000
  0.028601  0.028601  0.043935      8.000000
  0.042902  0.028601  0.043935     16.000000
  0.057203  0.028601  0.043935     16.000000
  0.071503  0.028601  0.043935     16.000000
  0.085804  0.028601  0.043935     16.000000
  0.100105  0.028601  0.043935     16.000000
  0.042902  0.042902  0.043935      8.000000
  0.057203  0.042902  0.043935     16.000000
  0.071503  0.042902  0.043935     16.000000
  0.085804  0.042902  0.043935     16.000000
  0.100105  0.042902  0.043935     16.000000
  0.057203  0.057203  0.043935      8.000000
  0.071503  0.057203  0.043935     16.000000
  0.085804  0.057203  0.043935     16.000000
  0.100105  0.057203  0.043935     16.000000
  0.071503  0.071503  0.043935      8.000000
  0.085804  0.071503  0.043935     16.000000
  0.100105  0.071503  0.043935     16.000000
  0.085804  0.085804  0.043935      8.000000
  0.100105  0.085804  0.043935     16.000000
  0.100105  0.100105  0.043935      8.000000
  0.000000  0.000000  0.058580      2.000000
  0.014301  0.000000  0.058580      8.000000
  0.028601  0.000000  0.058580      8.000000
  0.042902  0.000000  0.058580      8.000000
  0.057203  0.000000  0.058580      8.000000
  0.071503  0.000000  0.058580      8.000000
  0.085804  0.000000  0.058580      8.000000
  0.100105  0.000000  0.058580      8.000000
  0.014301  0.014301  0.058580      8.000000
  0.028601  0.014301  0.058580     16.000000
  0.042902  0.014301  0.058580     16.000000
  0.057203  0.014301  0.058580     16.000000
  0.071503  0.014301  0.058580     16.000000
  0.085804  0.014301  0.058580     16.000000
  0.100105  0.014301  0.058580     16.000000
  0.028601  0.028601  0.058580      8.000000
  0.042902  0.028601  0.058580     16.000000
  0.057203  0.028601  0.058580     16.000000
  0.071503  0.028601  0.058580     16.000000
  0.085804  0.028601  0.058580     16.000000
  0.100105  0.028601  0.058580     16.000000
  0.042902  0.042902  0.058580      8.000000
  0.057203  0.042902  0.058580     16.000000
  0.071503  0.042902  0.058580     16.000000
  0.085804  0.042902  0.058580     16.000000
  0.100105  0.042902  0.058580     16.000000
  0.057203  0.057203  0.058580      8.000000
  0.071503  0.057203  0.058580     16.000000
  0.085804  0.057203  0.058580     16.000000
  0.100105  0.057203  0.058580     16.000000
  0.071503  0.071503  0.058580      8.000000
  0.085804  0.071503  0.058580     16.000000
  0.100105  0.071503  0.058580     16.000000
  0.085804  0.085804  0.058580      8.000000
  0.100105  0.085804  0.058580     16.000000
  0.100105  0.100105  0.058580      8.000000
  0.000000  0.000000  0.073225      2.000000
  0.014301  0.000000  0.073225      8.000000
  0.028601  0.000000  0.073225      8.000000
  0.042902  0.000000  0.073225      8.000000
  0.057203  0.000000  0.073225      8.000000
  0.071503  0.000000  0.073225      8.000000
  0.085804  0.000000  0.073225      8.000000
  0.100105  0.000000  0.073225      8.000000
  0.014301  0.014301  0.073225      8.000000
  0.028601  0.014301  0.073225     16.000000
  0.042902  0.014301  0.073225     16.000000
  0.057203  0.014301  0.073225     16.000000
  0.071503  0.014301  0.073225     16.000000
  0.085804  0.014301  0.073225     16.000000
  0.100105  0.014301  0.073225     16.000000
  0.028601  0.028601  0.073225      8.000000
  0.042902  0.028601  0.073225     16.000000
  0.057203  0.028601  0.073225     16.000000
  0.071503  0.028601  0.073225     16.000000
  0.085804  0.028601  0.073225     16.000000
  0.100105  0.028601  0.073225     16.000000
  0.042902  0.042902  0.073225      8.000000
  0.057203  0.042902  0.073225     16.000000
  0.071503  0.042902  0.073225     16.000000
  0.085804  0.042902  0.073225     16.000000
  0.100105  0.042902  0.073225     16.000000
  0.057203  0.057203  0.073225      8.000000
  0.071503  0.057203  0.073225     16.000000
  0.085804  0.057203  0.073225     16.000000
  0.100105  0.057203  0.073225     16.000000
  0.071503  0.071503  0.073225      8.000000
  0.085804  0.071503  0.073225     16.000000
  0.100105  0.071503  0.073225     16.000000
  0.085804  0.085804  0.073225      8.000000
  0.100105  0.085804  0.073225     16.000000
  0.100105  0.100105  0.073225      8.000000
  0.000000  0.000000  0.087870      2.000000
  0.014301  0.000000  0.087870      8.000000
  0.028601  0.000000  0.087870      8.000000
  0.042902  0.000000  0.087870      8.000000
  0.057203  0.000000  0.087870      8.000000
  0.071503  0.000000  0.087870      8.000000
  0.085804  0.000000  0.087870      8.000000
  0.100105  0.000000  0.087870      8.000000
  0.014301  0.014301  0.087870      8.000000
  0.028601  0.014301  0.087870     16.000000
  0.042902  0.014301  0.087870     16.000000
  0.057203  0.014301  0.087870     16.000000
  0.071503  0.014301  0.087870     16.000000
  0.085804  0.014301  0.087870     16.000000
  0.100105  0.014301  0.087870     16.000000
  0.028601  0.028601  0.087870      8.000000
  0.042902  0.028601  0.087870     16.000000
  0.057203  0.028601  0.087870     16.000000
  0.071503  0.028601  0.087870     16.000000
  0.085804  0.028601  0.087870     16.000000
  0.100105  0.028601  0.087870     16.000000
  0.042902  0.042902  0.087870      8.000000
  0.057203  0.042902  0.087870     16.000000
  0.071503  0.042902  0.087870     16.000000
  0.085804  0.042902  0.087870     16.000000
  0.100105  0.042902  0.087870     16.000000
  0.057203  0.057203  0.087870      8.000000
  0.071503  0.057203  0.087870     16.000000
  0.085804  0.057203  0.087870     16.000000
  0.100105  0.057203  0.087870     16.000000
  0.071503  0.071503  0.087870      8.000000
  0.085804  0.071503  0.087870     16.000000
  0.100105  0.071503  0.087870     16.000000
  0.085804  0.085804  0.087870      8.000000
  0.100105  0.085804  0.087870     16.000000
  0.100105  0.100105  0.087870      8.000000
  0.000000  0.000000  0.102515      2.000000
  0.014301  0.000000  0.102515      8.000000
  0.028601  0.000000  0.102515      8.000000
  0.042902  0.000000  0.102515      8.000000
  0.057203  0.000000  0.102515      8.000000
  0.071503  0.000000  0.102515      8.000000
  0.085804  0.000000  0.102515      8.000000
  0.100105  0.000000  0.102515      8.000000
  0.014301  0.014301  0.102515      8.000000
  0.028601  0.014301  0.102515     16.000000
  0.042902  0.014301  0.102515     16.000000
  0.057203  0.014301  0.102515     16.000000
  0.071503  0.014301  0.102515     16.000000
  0.085804  0.014301  0.102515     16.000000
  0.100105  0.014301  0.102515     16.000000
  0.028601  0.028601  0.102515      8.000000
  0.042902  0.028601  0.102515     16.000000
  0.057203  0.028601  0.102515     16.000000
  0.071503  0.028601  0.102515     16.000000
  0.085804  0.028601  0.102515     16.000000
  0.100105  0.028601  0.102515     16.000000
  0.042902  0.042902  0.102515      8.000000
  0.057203  0.042902  0.102515     16.000000
  0.071503  0.042902  0.102515     16.000000
  0.085804  0.042902  0.102515     16.000000
  0.100105  0.042902  0.102515     16.000000
  0.057203  0.057203  0.102515      8.000000
  0.071503  0.057203  0.102515     16.000000
  0.085804  0.057203  0.102515     16.000000
  0.100105  0.057203  0.102515     16.000000
  0.071503  0.071503  0.102515      8.000000
  0.085804  0.071503  0.102515     16.000000
  0.100105  0.071503  0.102515     16.000000
  0.085804  0.085804  0.102515      8.000000
  0.100105  0.085804  0.102515     16.000000
  0.100105  0.100105  0.102515      8.000000
  0.000000  0.000000  0.117160      2.000000
  0.014301  0.000000  0.117160      8.000000
  0.028601  0.000000  0.117160      8.000000
  0.042902  0.000000  0.117160      8.000000
  0.057203  0.000000  0.117160      8.000000
  0.071503  0.000000  0.117160      8.000000
  0.085804  0.000000  0.117160      8.000000
  0.100105  0.000000  0.117160      8.000000
  0.014301  0.014301  0.117160      8.000000
  0.028601  0.014301  0.117160     16.000000
  0.042902  0.014301  0.117160     16.000000
  0.057203  0.014301  0.117160     16.000000
  0.071503  0.014301  0.117160     16.000000
  0.085804  0.014301  0.117160     16.000000
  0.100105  0.014301  0.117160     16.000000
  0.028601  0.028601  0.117160      8.000000
  0.042902  0.028601  0.117160     16.000000
  0.057203  0.028601  0.117160     16.000000
  0.071503  0.028601  0.117160     16.000000
  0.085804  0.028601  0.117160     16.000000
  0.100105  0.028601  0.117160     16.000000
  0.042902  0.042902  0.117160      8.000000
  0.057203  0.042902  0.117160     16.000000
  0.071503  0.042902  0.117160     16.000000
  0.085804  0.042902  0.117160     16.000000
  0.100105  0.042902  0.117160     16.000000
  0.057203  0.057203  0.117160      8.000000
  0.071503  0.057203  0.117160     16.000000
  0.085804  0.057203  0.117160     16.000000
  0.100105  0.057203  0.117160     16.000000
  0.071503  0.071503  0.117160      8.000000
  0.085804  0.071503  0.117160     16.000000
  0.100105  0.071503  0.117160     16.000000
  0.085804  0.085804  0.117160      8.000000
  0.100105  0.085804  0.117160     16.000000
  0.100105  0.100105  0.117160      8.000000
  0.000000  0.000000  0.131806      2.000000
  0.014301  0.000000  0.131806      8.000000
  0.028601  0.000000  0.131806      8.000000
  0.042902  0.000000  0.131806      8.000000
  0.057203  0.000000  0.131806      8.000000
  0.071503  0.000000  0.131806      8.000000
  0.085804  0.000000  0.131806      8.000000
  0.100105  0.000000  0.131806      8.000000
  0.014301  0.014301  0.131806      8.000000
  0.028601  0.014301  0.131806     16.000000
  0.042902  0.014301  0.131806     16.000000
  0.057203  0.014301  0.131806     16.000000
  0.071503  0.014301  0.131806     16.000000
  0.085804  0.014301  0.131806     16.000000
  0.100105  0.014301  0.131806     16.000000
  0.028601  0.028601  0.131806      8.000000
  0.042902  0.028601  0.131806     16.000000
  0.057203  0.028601  0.131806     16.000000
  0.071503  0.028601  0.131806     16.000000
  0.085804  0.028601  0.131806     16.000000
  0.100105  0.028601  0.131806     16.000000
  0.042902  0.042902  0.131806      8.000000
  0.057203  0.042902  0.131806     16.000000
  0.071503  0.042902  0.131806     16.000000
  0.085804  0.042902  0.131806     16.000000
  0.100105  0.042902  0.131806     16.000000
  0.057203  0.057203  0.131806      8.000000
  0.071503  0.057203  0.131806     16.000000
  0.085804  0.057203  0.131806     16.000000
  0.100105  0.057203  0.131806     16.000000
  0.071503  0.071503  0.131806      8.000000
  0.085804  0.071503  0.131806     16.000000
  0.100105  0.071503  0.131806     16.000000
  0.085804  0.085804  0.131806      8.000000
  0.100105  0.085804  0.131806     16.000000
  0.100105  0.100105  0.131806      8.000000
  0.000000  0.000000  0.146451      2.000000
  0.014301  0.000000  0.146451      8.000000
  0.028601  0.000000  0.146451      8.000000
  0.042902  0.000000  0.146451      8.000000
  0.057203  0.000000  0.146451      8.000000
  0.071503  0.000000  0.146451      8.000000
  0.085804  0.000000  0.146451      8.000000
  0.100105  0.000000  0.146451      8.000000
  0.014301  0.014301  0.146451      8.000000
  0.028601  0.014301  0.146451     16.000000
  0.042902  0.014301  0.146451     16.000000
  0.057203  0.014301  0.146451     16.000000
  0.071503  0.014301  0.146451     16.000000
  0.085804  0.014301  0.146451     16.000000
  0.100105  0.014301  0.146451     16.000000
  0.028601  0.028601  0.146451      8.000000
  0.042902  0.028601  0.146451     16.000000
  0.057203  0.028601  0.146451     16.000000
  0.071503  0.028601  0.146451     16.000000
  0.085804  0.028601  0.146451     16.000000
  0.100105  0.028601  0.146451     16.000000
  0.042902  0.042902  0.146451      8.000000
  0.057203  0.042902  0.146451     16.000000
  0.071503  0.042902  0.146451     16.000000
  0.085804  0.042902  0.146451     16.000000
  0.100105  0.042902  0.146451     16.000000
  0.057203  0.057203  0.146451      8.000000
  0.071503  0.057203  0.146451     16.000000
  0.085804  0.057203  0.146451     16.000000
  0.100105  0.057203  0.146451     16.000000
  0.071503  0.071503  0.146451      8.000000
  0.085804  0.071503  0.146451     16.000000
  0.100105  0.071503  0.146451     16.000000
  0.085804  0.085804  0.146451      8.000000
  0.100105  0.085804  0.146451     16.000000
  0.100105  0.100105  0.146451      8.000000
  0.000000  0.000000  0.161096      2.000000
  0.014301  0.000000  0.161096      8.000000
  0.028601  0.000000  0.161096      8.000000
  0.042902  0.000000  0.161096      8.000000
  0.057203  0.000000  0.161096      8.000000
  0.071503  0.000000  0.161096      8.000000
  0.085804  0.000000  0.161096      8.000000
  0.100105  0.000000  0.161096      8.000000
  0.014301  0.014301  0.161096      8.000000
  0.028601  0.014301  0.161096     16.000000
  0.042902  0.014301  0.161096     16.000000
  0.057203  0.014301  0.161096     16.000000
  0.071503  0.014301  0.161096     16.000000
  0.085804  0.014301  0.161096     16.000000
  0.100105  0.014301  0.161096     16.000000
  0.028601  0.028601  0.161096      8.000000
  0.042902  0.028601  0.161096     16.000000
  0.057203  0.028601  0.161096     16.000000
  0.071503  0.028601  0.161096     16.000000
  0.085804  0.028601  0.161096     16.000000
  0.100105  0.028601  0.161096     16.000000
  0.042902  0.042902  0.161096      8.000000
  0.057203  0.042902  0.161096     16.000000
  0.071503  0.042902  0.161096     16.000000
  0.085804  0.042902  0.161096     16.000000
  0.100105  0.042902  0.161096     16.000000
  0.057203  0.057203  0.161096      8.000000
  0.071503  0.057203  0.161096     16.000000
  0.085804  0.057203  0.161096     16.000000
  0.100105  0.057203  0.161096     16.000000
  0.071503  0.071503  0.161096      8.000000
  0.085804  0.071503  0.161096     16.000000
  0.100105  0.071503  0.161096     16.000000
  0.085804  0.085804  0.161096      8.000000
  0.100105  0.085804  0.161096     16.000000
  0.100105  0.100105  0.161096      8.000000
 


--------------------------------------------------------------------------------------------------------




 Dimension of arrays:
   k-points           NKPTS =    432   k-points in BZ     NKDIM =    432   number of bands    NBANDS=     20
   number of dos      NEDOS =    301   number of ions     NIONS =      6
   non local maximal  LDIM  =      5   non local SUM 2l+1 LMDIM =     15
   total plane-waves  NPLWV =  31104
   max r-space proj   IRMAX =      1   max aug-charges    IRDMAX=  33491
   dimension x,y,z NGX =    36 NGY =   36 NGZ =   24
   dimension x,y,z NGXF=    72 NGYF=   72 NGZF=   48
   support grid    NGXF=    72 NGYF=   72 NGZF=   48
   ions per type =               2   4
   NGX,Y,Z   is equivalent  to a cutoff of  12.84, 12.84, 13.44 a.u.
   NGXF,Y,Z  is equivalent  to a cutoff of  25.68, 25.68, 26.88 a.u.

 SYSTEM =  vaspCalc                                
 POSCAR =  Ti  O                                   

 Startparameter for this run:
   NWRITE =      1    write-flag & timer
   PREC   = accura    normal or accurate (medium, high low for compatibility)
   ISTART =      0    job   : 0-new  1-cont  2-samecut
   ICHARG =      1    charge: 1-file 2-atom 10-const
   ISPIN  =      1    spin polarized calculation?
   LNONCOLLINEAR =      F non collinear calculations
   LSORBIT =      F    spin-orbit coupling
   INIWAV =      1    electr: 0-lowe 1-rand  2-diag
   LASPH  =      F    aspherical Exc in radial PAW
   METAGGA=      F    non-selfconsistent MetaGGA calc.

 Electronic Relaxation 1
   ENCUT  =  500.0 eV  36.75 Ry    6.06 a.u.   8.50  8.50  5.41*2*pi/ulx,y,z
   ENINI  =  500.0     initial cutoff
   ENAUG  =  605.4 eV  augmentation charge cutoff
   NELM   =    120;   NELMIN=  4; NELMDL= -5     # of ELM steps 
   EDIFF  = 0.1E-07   stopping-criterion for ELM
   LREAL  =      F    real-space projection
   NLSPLINE    = F    spline interpolate recip. space projectors
   LCOMPAT=      F    compatible to vasp.4.4
   GGA_COMPAT  = T    GGA compatible to vasp.4.4-vasp.4.6
   LMAXPAW     = -100 max onsite density
   LMAXMIX     =    2 max onsite mixed and CHGCAR
   VOSKOWN=      0    Vosko Wilk Nusair interpolation
   ROPT   =    0.00000   0.00000
 Ionic relaxation
   EDIFFG = 0.1E-06   stopping-criterion for IOM
   NSW    =      0    number of steps for IOM
   NBLOCK =      1;   KBLOCK =      1    inner block; outer block 
   IBRION =     -1    ionic relax: 0-MD 1-quasi-New 2-CG
   NFREE  =      0    steps in history (QN), initial steepest desc. (CG)
   ISIF   =      2    stress and relaxation
   IWAVPR =     10    prediction:  0-non 1-charg 2-wave 3-comb
   ISYM   =      2    0-nonsym 1-usesym 2-fastsym
   LCORR  =      T    Harris-Foulkes like correction to forces

   POTIM  = 0.5000    time-step for ionic-motion
   TEIN   =    0.0    initial temperature
   TEBEG  =    0.0;   TEEND  =   0.0 temperature during run
   SMASS  =  -3.00    Nose mass-parameter (am)
   estimated Nose-frequenzy (Omega)   =  0.10E-29 period in steps =****** mass=  -0.497E-27a.u.
   SCALEE = 1.0000    scale energy and forces
   NPACO  =    256;   APACO  = 16.0  distance and # of slots for P.C.
   PSTRESS=    0.0 pullay stress

  Mass of Ions in am
   POMASS =  47.88 16.00
  Ionic Valenz
   ZVAL   =   4.00  6.00
  Atomic Wigner-Seitz radii
   RWIGS  =  -1.00 -1.00
  virtual crystal weights 
   VCA    =   1.00  1.00
   NELECT =      32.0000    total number of electrons
   NUPDOWN=      -1.0000    fix difference up-down

 DOS related values:
   EMIN   =  10.00;   EMAX   =-10.00  energy-range for DOS
   EFERMI =   0.00
   ISMEAR =     0;   SIGMA  =   0.04  broadening in eV -4-tet -1-fermi 0-gaus

 Electronic relaxation 2 (details)
   IALGO  =     68    algorithm
   LDIAG  =      T    sub-space diagonalisation (order eigenvalues)
   LSUBROT=      F    optimize rotation matrix (better conditioning)
   TURBO    =      0    0=normal 1=particle mesh
   IRESTART =      0    0=no restart 2=restart with 2 vectors
   NREBOOT  =      0    no. of reboots
   NMIN     =      0    reboot dimension
   EREF     =   0.00    reference energy to select bands
   IMIX   =      4    mixing-type and parameters
     AMIX     =   0.40;   BMIX     =  1.00
     AMIX_MAG =   1.60;   BMIX_MAG =  1.00
     AMIN     =   0.10
     WC   =   100.;   INIMIX=   1;  MIXPRE=   1;  MAXMIX= -45

 Intra band minimization:
   WEIMIN = 0.0000     energy-eigenvalue tresh-hold
   EBREAK =  0.13E-09  absolut break condition
   DEPER  =   0.30     relativ break condition  

   TIME   =   0.40     timestep for ELM

  volume/ion in A,a.u.               =      10.75        72.57
  Fermi-wavevector in a.u.,A,eV,Ry     =   1.295874  2.448846 22.848107  1.679288
  Thomas-Fermi vector in A             =   2.427366
 
 Write flags
   LWAVE        =      F    write WAVECAR
   LDOWNSAMPLE  =      F    k-point downsampling of WAVECAR
   LCHARG       =      F    write CHGCAR
   LVTOT        =      F    write LOCPOT, total local potential
   LVHAR        =      F    write LOCPOT, Hartree potential only
   LELF         =      F    write electronic localiz. function (ELF)
   LORBIT       =      0    0 simple, 1 ext, 2 COOP (PROOUT), +10 PAW based schemes


 Dipole corrections
   LMONO  =      F    monopole corrections only (constant potential shift)
   LDIPOL =      F    correct potential (dipole corrections)
   IDIPOL =      0    1-x, 2-y, 3-z, 4-all directions 
   EPSILON=  1.0000000 bulk dielectric constant

 Exchange correlation treatment:
   GGA     =    PE    GGA type
   LEXCH   =     8    internal setting for exchange type
   VOSKOWN=      0    Vosko Wilk Nusair interpolation
   LHFCALC =     F    Hartree Fock is set to
   LHFONE  =     F    Hartree Fock one center treatment
   AEXX    =    0.0000 exact exchange contribution

 Linear response parameters
   LEPSILON=     F    determine dielectric tensor
   LRPA    =     F    only Hartree local field effects (RPA)
   LNABLA  =     F    use nabla operator in PAW spheres
   LVEL    =     F    velocity operator in full k-point grid
   LINTERFAST=   F  fast interpolation
   KINTER  =     0    interpolate to denser k-point grid
   CSHIFT  =0.1000    complex shift for real part using Kramers Kronig
   OMEGAMAX=  -1.0    maximum frequency
   DEG_THRESHOLD= 0.2000000E-02 threshold for treating states as degnerate
   RTIME   =   -0.100 relaxation time in fs
  (WPLASMAI=    0.000 imaginary part of plasma frequency in eV, 0.658/RTIME)
   DFIELD  = 0.0000000 0.0000000 0.0000000 field for delta impulse in time
 
 Orbital magnetization related:
   ORBITALMAG=     F  switch on orbital magnetization
   LCHIMAG   =     F  perturbation theory with respect to B field
   DQ        =  0.001000  dq finite difference perturbation B field
   LLRAUG    =     F  two centre corrections for induced B field



--------------------------------------------------------------------------------------------------------


 Static calculation
 charge density and potential will be updated during run
 non-spin polarized calculation
 RMM-DIIS sequential band-by-band and
  variant of blocked Davidson during initial phase
 perform sub-space diagonalisation
    before iterative eigenvector-optimisation
 modified Broyden-mixing scheme, WC =      100.0
 initial mixing is a Kerker type mixing with AMIX =  0.4000 and BMIX =      1.0000
 Hartree-type preconditioning will be used
 using additional bands            4
 reciprocal scheme for non local part
 use partial core corrections
 calculate Harris-corrections to forces 
   (improved forces if not selfconsistent)
 use gradient corrections 
 use of overlap-Matrix (Vanderbilt PP)
 Gauss-broadening in eV      SIGMA  =   0.04


--------------------------------------------------------------------------------------------------------


  energy-cutoff  :      500.00
  volume of cell :       64.52
      direct lattice vectors                 reciprocal lattice vectors
     4.661789856  0.000000000  0.000000000     0.214509884  0.000000000  0.000000000
     0.000000000  4.661789856  0.000000000     0.000000000  0.214509884  0.000000000
     0.000000000  0.000000000  2.968801281     0.000000000  0.000000000  0.336836287

  length of vectors
     4.661789856  4.661789856  2.968801281     0.214509884  0.214509884  0.336836287


 
 k-points in units of 2pi/SCALE and weight: KPOINTS created by Atomic Simulation Env
   0.00000000  0.00000000  0.00000000       0.000
   0.01430066  0.00000000  0.00000000       0.001
   0.02860132  0.00000000  0.00000000       0.001
   0.04290198  0.00000000  0.00000000       0.001
   0.05720264  0.00000000  0.00000000       0.001
   0.07150329  0.00000000  0.00000000       0.001
   0.08580395  0.00000000  0.00000000       0.001
   0.10010461  0.00000000  0.00000000       0.001
   0.01430066  0.01430066  0.00000000       0.001
   0.02860132  0.01430066  0.00000000       0.002
   0.04290198  0.01430066  0.00000000       0.002
   0.05720264  0.01430066  0.00000000       0.002
   0.07150329  0.01430066  0.00000000       0.002
   0.08580395  0.01430066  0.00000000       0.002
   0.10010461  0.01430066  0.00000000       0.002
   0.02860132  0.02860132  0.00000000       0.001
   0.04290198  0.02860132  0.00000000       0.002
   0.05720264  0.02860132  0.00000000       0.002
   0.07150329  0.02860132  0.00000000       0.002
   0.08580395  0.02860132  0.00000000       0.002
   0.10010461  0.02860132  0.00000000       0.002
   0.04290198  0.04290198  0.00000000       0.001
   0.05720264  0.04290198  0.00000000       0.002
   0.07150329  0.04290198  0.00000000       0.002
   0.08580395  0.04290198  0.00000000       0.002
   0.10010461  0.04290198  0.00000000       0.002
   0.05720264  0.05720264  0.00000000       0.001
   0.07150329  0.05720264  0.00000000       0.002
   0.08580395  0.05720264  0.00000000       0.002
   0.10010461  0.05720264  0.00000000       0.002
   0.07150329  0.07150329  0.00000000       0.001
   0.08580395  0.07150329  0.00000000       0.002
   0.10010461  0.07150329  0.00000000       0.002
   0.08580395  0.08580395  0.00000000       0.001
   0.10010461  0.08580395  0.00000000       0.002
   0.10010461  0.10010461  0.00000000       0.001
   0.00000000  0.00000000  0.01464506       0.000
   0.01430066  0.00000000  0.01464506       0.002
   0.02860132  0.00000000  0.01464506       0.002
   0.04290198  0.00000000  0.01464506       0.002
   0.05720264  0.00000000  0.01464506       0.002
   0.07150329  0.00000000  0.01464506       0.002
   0.08580395  0.00000000  0.01464506       0.002
   0.10010461  0.00000000  0.01464506       0.002
   0.01430066  0.01430066  0.01464506       0.002
   0.02860132  0.01430066  0.01464506       0.003
   0.04290198  0.01430066  0.01464506       0.003
   0.05720264  0.01430066  0.01464506       0.003
   0.07150329  0.01430066  0.01464506       0.003
   0.08580395  0.01430066  0.01464506       0.003
   0.10010461  0.01430066  0.01464506       0.003
   0.02860132  0.02860132  0.01464506       0.002
   0.04290198  0.02860132  0.01464506       0.003
   0.05720264  0.02860132  0.01464506       0.003
   0.07150329  0.02860132  0.01464506       0.003
   0.08580395  0.02860132  0.01464506       0.003
   0.10010461  0.02860132  0.01464506       0.003
   0.04290198  0.04290198  0.01464506       0.002
   0.05720264  0.04290198  0.01464506       0.003
   0.07150329  0.04290198  0.01464506       0.003
   0.08580395  0.04290198  0.01464506       0.003
   0.10010461  0.04290198  0.01464506       0.003
   0.05720264  0.05720264  0.01464506       0.002
   0.07150329  0.05720264  0.01464506       0.003
   0.08580395  0.05720264  0.01464506       0.003
   0.10010461  0.05720264  0.01464506       0.003
   0.07150329  0.07150329  0.01464506       0.002
   0.08580395  0.07150329  0.01464506       0.003
   0.10010461  0.07150329  0.01464506       0.003
   0.08580395  0.08580395  0.01464506       0.002
   0.10010461  0.08580395  0.01464506       0.003
   0.10010461  0.10010461  0.01464506       0.002
   0.00000000  0.00000000  0.02929011       0.000
   0.01430066  0.00000000  0.02929011       0.002
   0.02860132  0.00000000  0.02929011       0.002
   0.04290198  0.00000000  0.02929011       0.002
   0.05720264  0.00000000  0.02929011       0.002
   0.07150329  0.00000000  0.02929011       0.002
   0.08580395  0.00000000  0.02929011       0.002
   0.10010461  0.00000000  0.02929011       0.002
   0.01430066  0.01430066  0.02929011       0.002
   0.02860132  0.01430066  0.02929011       0.003
   0.04290198  0.01430066  0.02929011       0.003
   0.05720264  0.01430066  0.02929011       0.003
   0.07150329  0.01430066  0.02929011       0.003
   0.08580395  0.01430066  0.02929011       0.003
   0.10010461  0.01430066  0.02929011       0.003
   0.02860132  0.02860132  0.02929011       0.002
   0.04290198  0.02860132  0.02929011       0.003
   0.05720264  0.02860132  0.02929011       0.003
   0.07150329  0.02860132  0.02929011       0.003
   0.08580395  0.02860132  0.02929011       0.003
   0.10010461  0.02860132  0.02929011       0.003
   0.04290198  0.04290198  0.02929011       0.002
   0.05720264  0.04290198  0.02929011       0.003
   0.07150329  0.04290198  0.02929011       0.003
   0.08580395  0.04290198  0.02929011       0.003
   0.10010461  0.04290198  0.02929011       0.003
   0.05720264  0.05720264  0.02929011       0.002
   0.07150329  0.05720264  0.02929011       0.003
   0.08580395  0.05720264  0.02929011       0.003
   0.10010461  0.05720264  0.02929011       0.003
   0.07150329  0.07150329  0.02929011       0.002
   0.08580395  0.07150329  0.02929011       0.003
   0.10010461  0.07150329  0.02929011       0.003
   0.08580395  0.08580395  0.02929011       0.002
   0.10010461  0.08580395  0.02929011       0.003
   0.10010461  0.10010461  0.02929011       0.002
   0.00000000  0.00000000  0.04393517       0.000
   0.01430066  0.00000000  0.04393517       0.002
   0.02860132  0.00000000  0.04393517       0.002
   0.04290198  0.00000000  0.04393517       0.002
   0.05720264  0.00000000  0.04393517       0.002
   0.07150329  0.00000000  0.04393517       0.002
   0.08580395  0.00000000  0.04393517       0.002
   0.10010461  0.00000000  0.04393517       0.002
   0.01430066  0.01430066  0.04393517       0.002
   0.02860132  0.01430066  0.04393517       0.003
   0.04290198  0.01430066  0.04393517       0.003
   0.05720264  0.01430066  0.04393517       0.003
   0.07150329  0.01430066  0.04393517       0.003
   0.08580395  0.01430066  0.04393517       0.003
   0.10010461  0.01430066  0.04393517       0.003
   0.02860132  0.02860132  0.04393517       0.002
   0.04290198  0.02860132  0.04393517       0.003
   0.05720264  0.02860132  0.04393517       0.003
   0.07150329  0.02860132  0.04393517       0.003
   0.08580395  0.02860132  0.04393517       0.003
   0.10010461  0.02860132  0.04393517       0.003
   0.04290198  0.04290198  0.04393517       0.002
   0.05720264  0.04290198  0.04393517       0.003
   0.07150329  0.04290198  0.04393517       0.003
   0.08580395  0.04290198  0.04393517       0.003
   0.10010461  0.04290198  0.04393517       0.003
   0.05720264  0.05720264  0.04393517       0.002
   0.07150329  0.05720264  0.04393517       0.003
   0.08580395  0.05720264  0.04393517       0.003
   0.10010461  0.05720264  0.04393517       0.003
   0.07150329  0.07150329  0.04393517       0.002
   0.08580395  0.07150329  0.04393517       0.003
   0.10010461  0.07150329  0.04393517       0.003
   0.08580395  0.08580395  0.04393517       0.002
   0.10010461  0.08580395  0.04393517       0.003
   0.10010461  0.10010461  0.04393517       0.002
   0.00000000  0.00000000  0.05858022       0.000
   0.01430066  0.00000000  0.05858022       0.002
   0.02860132  0.00000000  0.05858022       0.002
   0.04290198  0.00000000  0.05858022       0.002
   0.05720264  0.00000000  0.05858022       0.002
   0.07150329  0.00000000  0.05858022       0.002
   0.08580395  0.00000000  0.05858022       0.002
   0.10010461  0.00000000  0.05858022       0.002
   0.01430066  0.01430066  0.05858022       0.002
   0.02860132  0.01430066  0.05858022       0.003
   0.04290198  0.01430066  0.05858022       0.003
   0.05720264  0.01430066  0.05858022       0.003
   0.07150329  0.01430066  0.05858022       0.003
   0.08580395  0.01430066  0.05858022       0.003
   0.10010461  0.01430066  0.05858022       0.003
   0.02860132  0.02860132  0.05858022       0.002
   0.04290198  0.02860132  0.05858022       0.003
   0.05720264  0.02860132  0.05858022       0.003
   0.07150329  0.02860132  0.05858022       0.003
   0.08580395  0.02860132  0.05858022       0.003
   0.10010461  0.02860132  0.05858022       0.003
   0.04290198  0.04290198  0.05858022       0.002
   0.05720264  0.04290198  0.05858022       0.003
   0.07150329  0.04290198  0.05858022       0.003
   0.08580395  0.04290198  0.05858022       0.003
   0.10010461  0.04290198  0.05858022       0.003
   0.05720264  0.05720264  0.05858022       0.002
   0.07150329  0.05720264  0.05858022       0.003
   0.08580395  0.05720264  0.05858022       0.003
   0.10010461  0.05720264  0.05858022       0.003
   0.07150329  0.07150329  0.05858022       0.002
   0.08580395  0.07150329  0.05858022       0.003
   0.10010461  0.07150329  0.05858022       0.003
   0.08580395  0.08580395  0.05858022       0.002
   0.10010461  0.08580395  0.05858022       0.003
   0.10010461  0.10010461  0.05858022       0.002
   0.00000000  0.00000000  0.07322528       0.000
   0.01430066  0.00000000  0.07322528       0.002
   0.02860132  0.00000000  0.07322528       0.002
   0.04290198  0.00000000  0.07322528       0.002
   0.05720264  0.00000000  0.07322528       0.002
   0.07150329  0.00000000  0.07322528       0.002
   0.08580395  0.00000000  0.07322528       0.002
   0.10010461  0.00000000  0.07322528       0.002
   0.01430066  0.01430066  0.07322528       0.002
   0.02860132  0.01430066  0.07322528       0.003
   0.04290198  0.01430066  0.07322528       0.003
   0.05720264  0.01430066  0.07322528       0.003
   0.07150329  0.01430066  0.07322528       0.003
   0.08580395  0.01430066  0.07322528       0.003
   0.10010461  0.01430066  0.07322528       0.003
   0.02860132  0.02860132  0.07322528       0.002
   0.04290198  0.02860132  0.07322528       0.003
   0.05720264  0.02860132  0.07322528       0.003
   0.07150329  0.02860132  0.07322528       0.003
   0.08580395  0.02860132  0.07322528       0.003
   0.10010461  0.02860132  0.07322528       0.003
   0.04290198  0.04290198  0.07322528       0.002
   0.05720264  0.04290198  0.07322528       0.003
   0.07150329  0.04290198  0.07322528       0.003
   0.08580395  0.04290198  0.07322528       0.003
   0.10010461  0.04290198  0.07322528       0.003
   0.05720264  0.05720264  0.07322528       0.002
   0.07150329  0.05720264  0.07322528       0.003
   0.08580395  0.05720264  0.07322528       0.003
   0.10010461  0.05720264  0.07322528       0.003
   0.07150329  0.07150329  0.07322528       0.002
   0.08580395  0.07150329  0.07322528       0.003
   0.10010461  0.07150329  0.07322528       0.003
   0.08580395  0.08580395  0.07322528       0.002
   0.10010461  0.08580395  0.07322528       0.003
   0.10010461  0.10010461  0.07322528       0.002
   0.00000000  0.00000000  0.08787034       0.000
   0.01430066  0.00000000  0.08787034       0.002
   0.02860132  0.00000000  0.08787034       0.002
   0.04290198  0.00000000  0.08787034       0.002
   0.05720264  0.00000000  0.08787034       0.002
   0.07150329  0.00000000  0.08787034       0.002
   0.08580395  0.00000000  0.08787034       0.002
   0.10010461  0.00000000  0.08787034       0.002
   0.01430066  0.01430066  0.08787034       0.002
   0.02860132  0.01430066  0.08787034       0.003
   0.04290198  0.01430066  0.08787034       0.003
   0.05720264  0.01430066  0.08787034       0.003
   0.07150329  0.01430066  0.08787034       0.003
   0.08580395  0.01430066  0.08787034       0.003
   0.10010461  0.01430066  0.08787034       0.003
   0.02860132  0.02860132  0.08787034       0.002
   0.04290198  0.02860132  0.08787034       0.003
   0.05720264  0.02860132  0.08787034       0.003
   0.07150329  0.02860132  0.08787034       0.003
   0.08580395  0.02860132  0.08787034       0.003
   0.10010461  0.02860132  0.08787034       0.003
   0.04290198  0.04290198  0.08787034       0.002
   0.05720264  0.04290198  0.08787034       0.003
   0.07150329  0.04290198  0.08787034       0.003
   0.08580395  0.04290198  0.08787034       0.003
   0.10010461  0.04290198  0.08787034       0.003
   0.05720264  0.05720264  0.08787034       0.002
   0.07150329  0.05720264  0.08787034       0.003
   0.08580395  0.05720264  0.08787034       0.003
   0.10010461  0.05720264  0.08787034       0.003
   0.07150329  0.07150329  0.08787034       0.002
   0.08580395  0.07150329  0.08787034       0.003
   0.10010461  0.07150329  0.08787034       0.003
   0.08580395  0.08580395  0.08787034       0.002
   0.10010461  0.08580395  0.08787034       0.003
   0.10010461  0.10010461  0.08787034       0.002
   0.00000000  0.00000000  0.10251539       0.000
   0.01430066  0.00000000  0.10251539       0.002
   0.02860132  0.00000000  0.10251539       0.002
   0.04290198  0.00000000  0.10251539       0.002
   0.05720264  0.00000000  0.10251539       0.002
   0.07150329  0.00000000  0.10251539       0.002
   0.08580395  0.00000000  0.10251539       0.002
   0.10010461  0.00000000  0.10251539       0.002
   0.01430066  0.01430066  0.10251539       0.002
   0.02860132  0.01430066  0.10251539       0.003
   0.04290198  0.01430066  0.10251539       0.003
   0.05720264  0.01430066  0.10251539       0.003
   0.07150329  0.01430066  0.10251539       0.003
   0.08580395  0.01430066  0.10251539       0.003
   0.10010461  0.01430066  0.10251539       0.003
   0.02860132  0.02860132  0.10251539       0.002
   0.04290198  0.02860132  0.10251539       0.003
   0.05720264  0.02860132  0.10251539       0.003
   0.07150329  0.02860132  0.10251539       0.003
   0.08580395  0.02860132  0.10251539       0.003
   0.10010461  0.02860132  0.10251539       0.003
   0.04290198  0.04290198  0.10251539       0.002
   0.05720264  0.04290198  0.10251539       0.003
   0.07150329  0.04290198  0.10251539       0.003
   0.08580395  0.04290198  0.10251539       0.003
   0.10010461  0.04290198  0.10251539       0.003
   0.05720264  0.05720264  0.10251539       0.002
   0.07150329  0.05720264  0.10251539       0.003
   0.08580395  0.05720264  0.10251539       0.003
   0.10010461  0.05720264  0.10251539       0.003
   0.07150329  0.07150329  0.10251539       0.002
   0.08580395  0.07150329  0.10251539       0.003
   0.10010461  0.07150329  0.10251539       0.003
   0.08580395  0.08580395  0.10251539       0.002
   0.10010461  0.08580395  0.10251539       0.003
   0.10010461  0.10010461  0.10251539       0.002
   0.00000000  0.00000000  0.11716045       0.000
   0.01430066  0.00000000  0.11716045       0.002
   0.02860132  0.00000000  0.11716045       0.002
   0.04290198  0.00000000  0.11716045       0.002
   0.05720264  0.00000000  0.11716045       0.002
   0.07150329  0.00000000  0.11716045       0.002
   0.08580395  0.00000000  0.11716045       0.002
   0.10010461  0.00000000  0.11716045       0.002
   0.01430066  0.01430066  0.11716045       0.002
   0.02860132  0.01430066  0.11716045       0.003
   0.04290198  0.01430066  0.11716045       0.003
   0.05720264  0.01430066  0.11716045       0.003
   0.07150329  0.01430066  0.11716045       0.003
   0.08580395  0.01430066  0.11716045       0.003
   0.10010461  0.01430066  0.11716045       0.003
   0.02860132  0.02860132  0.11716045       0.002
   0.04290198  0.02860132  0.11716045       0.003
   0.05720264  0.02860132  0.11716045       0.003
   0.07150329  0.02860132  0.11716045       0.003
   0.08580395  0.02860132  0.11716045       0.003
   0.10010461  0.02860132  0.11716045       0.003
   0.04290198  0.04290198  0.11716045       0.002
   0.05720264  0.04290198  0.11716045       0.003
   0.07150329  0.04290198  0.11716045       0.003
   0.08580395  0.04290198  0.11716045       0.003
   0.10010461  0.04290198  0.11716045       0.003
   0.05720264  0.05720264  0.11716045       0.002
   0.07150329  0.05720264  0.11716045       0.003
   0.08580395  0.05720264  0.11716045       0.003
   0.10010461  0.05720264  0.11716045       0.003
   0.07150329  0.07150329  0.11716045       0.002
   0.08580395  0.07150329  0.11716045       0.003
   0.10010461  0.07150329  0.11716045       0.003
   0.08580395  0.08580395  0.11716045       0.002
   0.10010461  0.08580395  0.11716045       0.003
   0.10010461  0.10010461  0.11716045       0.002
   0.00000000  0.00000000  0.13180550       0.000
   0.01430066  0.00000000  0.13180550       0.002
   0.02860132  0.00000000  0.13180550       0.002
   0.04290198  0.00000000  0.13180550       0.002
   0.05720264  0.00000000  0.13180550       0.002
   0.07150329  0.00000000  0.13180550       0.002
   0.08580395  0.00000000  0.13180550       0.002
   0.10010461  0.00000000  0.13180550       0.002
   0.01430066  0.01430066  0.13180550       0.002
   0.02860132  0.01430066  0.13180550       0.003
   0.04290198  0.01430066  0.13180550       0.003
   0.05720264  0.01430066  0.13180550       0.003
   0.07150329  0.01430066  0.13180550       0.003
   0.08580395  0.01430066  0.13180550       0.003
   0.10010461  0.01430066  0.13180550       0.003
   0.02860132  0.02860132  0.13180550       0.002
   0.04290198  0.02860132  0.13180550       0.003
   0.05720264  0.02860132  0.13180550       0.003
   0.07150329  0.02860132  0.13180550       0.003
   0.08580395  0.02860132  0.13180550       0.003
   0.10010461  0.02860132  0.13180550       0.003
   0.04290198  0.04290198  0.13180550       0.002
   0.05720264  0.04290198  0.13180550       0.003
   0.07150329  0.04290198  0.13180550       0.003
   0.08580395  0.04290198  0.13180550       0.003
   0.10010461  0.04290198  0.13180550       0.003
   0.05720264  0.05720264  0.13180550       0.002
   0.07150329  0.05720264  0.13180550       0.003
   0.08580395  0.05720264  0.13180550       0.003
   0.10010461  0.05720264  0.13180550       0.003
   0.07150329  0.07150329  0.13180550       0.002
   0.08580395  0.07150329  0.13180550       0.003
   0.10010461  0.07150329  0.13180550       0.003
   0.08580395  0.08580395  0.13180550       0.002
   0.10010461  0.08580395  0.13180550       0.003
   0.10010461  0.10010461  0.13180550       0.002
   0.00000000  0.00000000  0.14645056       0.000
   0.01430066  0.00000000  0.14645056       0.002
   0.02860132  0.00000000  0.14645056       0.002
   0.04290198  0.00000000  0.14645056       0.002
   0.05720264  0.00000000  0.14645056       0.002
   0.07150329  0.00000000  0.14645056       0.002
   0.08580395  0.00000000  0.14645056       0.002
   0.10010461  0.00000000  0.14645056       0.002
   0.01430066  0.01430066  0.14645056       0.002
   0.02860132  0.01430066  0.14645056       0.003
   0.04290198  0.01430066  0.14645056       0.003
   0.05720264  0.01430066  0.14645056       0.003
   0.07150329  0.01430066  0.14645056       0.003
   0.08580395  0.01430066  0.14645056       0.003
   0.10010461  0.01430066  0.14645056       0.003
   0.02860132  0.02860132  0.14645056       0.002
   0.04290198  0.02860132  0.14645056       0.003
   0.05720264  0.02860132  0.14645056       0.003
   0.07150329  0.02860132  0.14645056       0.003
   0.08580395  0.02860132  0.14645056       0.003
   0.10010461  0.02860132  0.14645056       0.003
   0.04290198  0.04290198  0.14645056       0.002
   0.05720264  0.04290198  0.14645056       0.003
   0.07150329  0.04290198  0.14645056       0.003
   0.08580395  0.04290198  0.14645056       0.003
   0.10010461  0.04290198  0.14645056       0.003
   0.05720264  0.05720264  0.14645056       0.002
   0.07150329  0.05720264  0.14645056       0.003
   0.08580395  0.05720264  0.14645056       0.003
   0.10010461  0.05720264  0.14645056       0.003
   0.07150329  0.07150329  0.14645056       0.002
   0.08580395  0.07150329  0.14645056       0.003
   0.10010461  0.07150329  0.14645056       0.003
   0.08580395  0.08580395  0.14645056       0.002
   0.10010461  0.08580395  0.14645056       0.003
   0.10010461  0.10010461  0.14645056       0.002
   0.00000000  0.00000000  0.16109562       0.000
   0.01430066  0.00000000  0.16109562       0.002
   0.02860132  0.00000000  0.16109562       0.002
   0.04290198  0.00000000  0.16109562       0.002
   0.05720264  0.00000000  0.16109562       0.002
   0.07150329  0.00000000  0.16109562       0.002
   0.08580395  0.00000000  0.16109562       0.002
   0.10010461  0.00000000  0.16109562       0.002
   0.01430066  0.01430066  0.16109562       0.002
   0.02860132  0.01430066  0.16109562       0.003
   0.04290198  0.01430066  0.16109562       0.003
   0.05720264  0.01430066  0.16109562       0.003
   0.07150329  0.01430066  0.16109562       0.003
   0.08580395  0.01430066  0.16109562       0.003
   0.10010461  0.01430066  0.16109562       0.003
   0.02860132  0.02860132  0.16109562       0.002
   0.04290198  0.02860132  0.16109562       0.003
   0.05720264  0.02860132  0.16109562       0.003
   0.07150329  0.02860132  0.16109562       0.003
   0.08580395  0.02860132  0.16109562       0.003
   0.10010461  0.02860132  0.16109562       0.003
   0.04290198  0.04290198  0.16109562       0.002
   0.05720264  0.04290198  0.16109562       0.003
   0.07150329  0.04290198  0.16109562       0.003
   0.08580395  0.04290198  0.16109562       0.003
   0.10010461  0.04290198  0.16109562       0.003
   0.05720264  0.05720264  0.16109562       0.002
   0.07150329  0.05720264  0.16109562       0.003
   0.08580395  0.05720264  0.16109562       0.003
   0.10010461  0.05720264  0.16109562       0.003
   0.07150329  0.07150329  0.16109562       0.002
   0.08580395  0.07150329  0.16109562       0.003
   0.10010461  0.07150329  0.16109562       0.003
   0.08580395  0.08580395  0.16109562       0.002
   0.10010461  0.08580395  0.16109562       0.003
   0.10010461  0.10010461  0.16109562       0.002
 
 k-points in reciprocal lattice and weights: KPOINTS created by Atomic Simulation Env
   0.00000000  0.00000000  0.00000000       0.000
   0.06666667  0.00000000  0.00000000       0.001
   0.13333333  0.00000000  0.00000000       0.001
   0.20000000  0.00000000  0.00000000       0.001
   0.26666667  0.00000000  0.00000000       0.001
   0.33333333  0.00000000  0.00000000       0.001
   0.40000000  0.00000000  0.00000000       0.001
   0.46666667  0.00000000  0.00000000       0.001
   0.06666667  0.06666667  0.00000000       0.001
   0.13333333  0.06666667  0.00000000       0.002
   0.20000000  0.06666667  0.00000000       0.002
   0.26666667  0.06666667  0.00000000       0.002
   0.33333333  0.06666667  0.00000000       0.002
   0.40000000  0.06666667  0.00000000       0.002
   0.46666667  0.06666667  0.00000000       0.002
   0.13333333  0.13333333  0.00000000       0.001
   0.20000000  0.13333333  0.00000000       0.002
   0.26666667  0.13333333  0.00000000       0.002
   0.33333333  0.13333333  0.00000000       0.002
   0.40000000  0.13333333  0.00000000       0.002
   0.46666667  0.13333333  0.00000000       0.002
   0.20000000  0.20000000  0.00000000       0.001
   0.26666667  0.20000000  0.00000000       0.002
   0.33333333  0.20000000  0.00000000       0.002
   0.40000000  0.20000000  0.00000000       0.002
   0.46666667  0.20000000  0.00000000       0.002
   0.26666667  0.26666667  0.00000000       0.001
   0.33333333  0.26666667  0.00000000       0.002
   0.40000000  0.26666667  0.00000000       0.002
   0.46666667  0.26666667  0.00000000       0.002
   0.33333333  0.33333333  0.00000000       0.001
   0.40000000  0.33333333  0.00000000       0.002
   0.46666667  0.33333333  0.00000000       0.002
   0.40000000  0.40000000  0.00000000       0.001
   0.46666667  0.40000000  0.00000000       0.002
   0.46666667  0.46666667  0.00000000       0.001
   0.00000000  0.00000000  0.04347826       0.000
   0.06666667  0.00000000  0.04347826       0.002
   0.13333333  0.00000000  0.04347826       0.002
   0.20000000  0.00000000  0.04347826       0.002
   0.26666667  0.00000000  0.04347826       0.002
   0.33333333  0.00000000  0.04347826       0.002
   0.40000000  0.00000000  0.04347826       0.002
   0.46666667  0.00000000  0.04347826       0.002
   0.06666667  0.06666667  0.04347826       0.002
   0.13333333  0.06666667  0.04347826       0.003
   0.20000000  0.06666667  0.04347826       0.003
   0.26666667  0.06666667  0.04347826       0.003
   0.33333333  0.06666667  0.04347826       0.003
   0.40000000  0.06666667  0.04347826       0.003
   0.46666667  0.06666667  0.04347826       0.003
   0.13333333  0.13333333  0.04347826       0.002
   0.20000000  0.13333333  0.04347826       0.003
   0.26666667  0.13333333  0.04347826       0.003
   0.33333333  0.13333333  0.04347826       0.003
   0.40000000  0.13333333  0.04347826       0.003
   0.46666667  0.13333333  0.04347826       0.003
   0.20000000  0.20000000  0.04347826       0.002
   0.26666667  0.20000000  0.04347826       0.003
   0.33333333  0.20000000  0.04347826       0.003
   0.40000000  0.20000000  0.04347826       0.003
   0.46666667  0.20000000  0.04347826       0.003
   0.26666667  0.26666667  0.04347826       0.002
   0.33333333  0.26666667  0.04347826       0.003
   0.40000000  0.26666667  0.04347826       0.003
   0.46666667  0.26666667  0.04347826       0.003
   0.33333333  0.33333333  0.04347826       0.002
   0.40000000  0.33333333  0.04347826       0.003
   0.46666667  0.33333333  0.04347826       0.003
   0.40000000  0.40000000  0.04347826       0.002
   0.46666667  0.40000000  0.04347826       0.003
   0.46666667  0.46666667  0.04347826       0.002
   0.00000000  0.00000000  0.08695652       0.000
   0.06666667  0.00000000  0.08695652       0.002
   0.13333333  0.00000000  0.08695652       0.002
   0.20000000  0.00000000  0.08695652       0.002
   0.26666667  0.00000000  0.08695652       0.002
   0.33333333  0.00000000  0.08695652       0.002
   0.40000000  0.00000000  0.08695652       0.002
[...]
      6      -2.7078      2.00000
      7      -2.4387      2.00000
      8      -2.3796      2.00000
      9      -2.2965      2.00000
     10      -1.1666      2.00000
     11      -0.9768      2.00000
     12      -0.8602      2.00000
     13      -0.2204      2.00000
     14       0.0415      2.00000
     15       0.2231      2.00000
     16       0.4629      2.00000
     17       3.4960      0.00000
     18       4.0737      0.00000
     19       4.6811      0.00000
     20       5.2607      0.00000

 k-point   420 :       0.3333    0.2000    0.4783
  band No.  band energies     occupation 
      1     -15.3989      2.00000
      2     -15.2674      2.00000
      3     -15.0617      2.00000
      4     -14.9206      2.00000
      5      -3.2496      2.00000
      6      -2.8953      2.00000
      7      -2.4342      2.00000
      8      -2.3388      2.00000
      9      -2.1983      2.00000
     10      -1.2651      2.00000
     11      -0.9692      2.00000
     12      -0.9156      2.00000
     13      -0.1609      2.00000
     14       0.1872      2.00000
     15       0.2939      2.00000
     16       0.6249      2.00000
     17       3.4171      0.00000
     18       3.8924      0.00000
     19       4.7552      0.00000
     20       5.2149      0.00000

 k-point   421 :       0.4000    0.2000    0.4783
  band No.  band energies     occupation 
      1     -15.3889      2.00000
      2     -15.3077      2.00000
      3     -15.0178      2.00000
      4     -14.9301      2.00000
      5      -3.2574      2.00000
      6      -3.0475      2.00000
      7      -2.4216      2.00000
      8      -2.3592      2.00000
      9      -2.0205      2.00000
     10      -1.4318      2.00000
     11      -0.9651      2.00000
     12      -0.9368      2.00000
     13      -0.0898      2.00000
     14       0.1373      2.00000
     15       0.5171      2.00000
     16       0.7337      2.00000
     17       3.3847      0.00000
     18       3.6969      0.00000
     19       4.8461      0.00000
     20       5.1395      0.00000

 k-point   422 :       0.4667    0.2000    0.4783
  band No.  band energies     occupation 
      1     -15.3697      2.00000
      2     -15.3423      2.00000
      3     -14.9798      2.00000
      4     -14.9501      2.00000
      5      -3.2283      2.00000
      6      -3.1588      2.00000
      7      -2.4033      2.00000
      8      -2.3818      2.00000
      9      -1.8271      2.00000
     10      -1.6270      2.00000
     11      -0.9577      2.00000
     12      -0.9480      2.00000
     13      -0.0106      2.00000
     14       0.0680      2.00000
     15       0.6814      2.00000
     16       0.7572      2.00000
     17       3.4201      0.00000
     18       3.5294      0.00000
     19       4.9518      0.00000
     20       5.0446      0.00000

 k-point   423 :       0.2667    0.2667    0.4783
  band No.  band energies     occupation 
      1     -15.3997      2.00000
      2     -15.2073      2.00000
      3     -15.1236      2.00000
      4     -14.9197      2.00000
      5      -3.2486      2.00000
      6      -2.6411      2.00000
      7      -2.5785      2.00000
      8      -2.4495      2.00000
      9      -2.2658      2.00000
     10      -1.1374      2.00000
     11      -1.0424      2.00000
     12      -0.9530      2.00000
     13      -0.0839      2.00000
     14       0.1736      2.00000
     15       0.2588      2.00000
     16       0.6086      2.00000
     17       3.4427      0.00000
     18       4.1016      0.00000
     19       4.5867      0.00000
     20       5.2098      0.00000

 k-point   424 :       0.3333    0.2667    0.4783
  band No.  band energies     occupation 
      1     -15.3904      2.00000
      2     -15.2346      2.00000
      3     -15.0938      2.00000
      4     -14.9280      2.00000
      5      -3.2624      2.00000
      6      -2.8177      2.00000
      7      -2.5333      2.00000
      8      -2.4583      2.00000
      9      -2.1845      2.00000
     10      -1.2629      2.00000
     11      -1.0838      2.00000
     12      -0.9653      2.00000
     13       0.0038      2.00000
     14       0.2633      2.00000
     15       0.3814      2.00000
     16       0.7358      2.00000
     17       3.4192      0.00000
     18       3.9992      0.00000
     19       4.6115      0.00000
     20       5.1720      0.00000

 k-point   425 :       0.4000    0.2667    0.4783
  band No.  band energies     occupation 
      1     -15.3722      2.00000
      2     -15.2742      2.00000
      3     -15.0513      2.00000
      4     -14.9464      2.00000
      5      -3.2466      2.00000
      6      -2.9820      2.00000
      7      -2.4985      2.00000
      8      -2.4647      2.00000
      9      -2.0496      2.00000
     10      -1.4721      2.00000
     11      -1.0570      2.00000
     12      -0.9813      2.00000
     13       0.0754      2.00000
     14       0.2423      2.00000
     15       0.5833      2.00000
     16       0.8130      2.00000
     17       3.4412      0.00000
     18       3.8263      0.00000
     19       4.7139      0.00000
     20       5.0610      0.00000

 k-point   426 :       0.4667    0.2667    0.4783
  band No.  band energies     occupation 
      1     -15.3457      2.00000
      2     -15.3124      2.00000
      3     -15.0101      2.00000
      4     -14.9743      2.00000
      5      -3.1963      2.00000
      6      -3.1086      2.00000
      7      -2.4815      2.00000
      8      -2.4717      2.00000
      9      -1.8766      2.00000
     10      -1.6806      2.00000
     11      -1.0292      2.00000
     12      -1.0033      2.00000
     13       0.1419      2.00000
     14       0.1997      2.00000
     15       0.7361      2.00000
     16       0.8159      2.00000
     17       3.5202      0.00000
     18       3.6547      0.00000
     19       4.8312      0.00000
     20       4.9522      0.00000

 k-point   427 :       0.3333    0.3333    0.4783
  band No.  band energies     occupation 
      1     -15.3731      2.00000
      2     -15.2239      2.00000
      3     -15.1029      2.00000
      4     -14.9450      2.00000
      5      -3.2525      2.00000
      6      -2.7772      2.00000
      7      -2.6928      2.00000
      8      -2.4904      2.00000
      9      -2.1177      2.00000
     10      -1.3777      2.00000
     11      -1.1306      2.00000
     12      -0.9874      2.00000
     13       0.1233      2.00000
     14       0.3048      2.00000
     15       0.5225      2.00000
     16       0.8289      2.00000
     17       3.4537      0.00000
     18       4.0359      0.00000
     19       4.5302      0.00000
     20       5.0869      0.00000

 k-point   428 :       0.4000    0.3333    0.4783
  band No.  band energies     occupation 
      1     -15.3480      2.00000
      2     -15.2458      2.00000
      3     -15.0789      2.00000
      4     -14.9708      2.00000
      5      -3.2152      2.00000
      6      -2.9121      2.00000
      7      -2.6602      2.00000
      8      -2.5241      2.00000
      9      -2.0179      2.00000
     10      -1.5548      2.00000
     11      -1.1118      2.00000
     12      -1.0155      2.00000
     13       0.2035      2.00000
     14       0.3150      2.00000
     15       0.6770      2.00000
     16       0.8801      2.00000
     17       3.5276      0.00000
     18       3.9430      0.00000
     19       4.5801      0.00000
     20       4.9706      0.00000

 k-point   429 :       0.4667    0.3333    0.4783
  band No.  band energies     occupation 
      1     -15.3164      2.00000
      2     -15.2808      2.00000
      3     -15.0416      2.00000
      4     -15.0039      2.00000
      5      -3.1470      2.00000
      6      -3.0457      2.00000
      7      -2.6073      2.00000
      8      -2.5623      2.00000
      9      -1.8869      2.00000
     10      -1.7299      2.00000
     11      -1.0811      2.00000
     12      -1.0478      2.00000
     13       0.2608      2.00000
     14       0.2989      2.00000
     15       0.8018      2.00000
     16       0.8726      2.00000
     17       3.6427      0.00000
     18       3.7901      0.00000
     19       4.7009      0.00000
     20       4.8372      0.00000

 k-point   430 :       0.4000    0.4000    0.4783
  band No.  band energies     occupation 
      1     -15.3179      2.00000
      2     -15.2368      2.00000
      3     -15.0867      2.00000
      4     -15.0016      2.00000
      5      -3.1600      2.00000
      6      -2.8677      2.00000
      7      -2.7859      2.00000
      8      -2.5906      2.00000
      9      -1.9552      2.00000
     10      -1.6620      2.00000
     11      -1.1243      2.00000
     12      -1.0509      2.00000
     13       0.2894      2.00000
     14       0.3544      2.00000
     15       0.7800      2.00000
     16       0.9179      2.00000
     17       3.6419      0.00000
     18       3.9862      0.00000
     19       4.5157      0.00000
     20       4.8443      0.00000

 k-point   431 :       0.4667    0.4000    0.4783
  band No.  band energies     occupation 
      1     -15.2848      2.00000
      2     -15.2540      2.00000
      3     -15.0680      2.00000
      4     -15.0358      2.00000
      5      -3.0786      2.00000
      6      -2.9714      2.00000
      7      -2.7396      2.00000
      8      -2.6640      2.00000
      9      -1.8716      2.00000
     10      -1.7717      2.00000
     11      -1.1114      2.00000
     12      -1.0845      2.00000
     13       0.3407      2.00000
     14       0.3623      2.00000
     15       0.8655      2.00000
     16       0.9141      2.00000
     17       3.7765      0.00000
     18       3.9098      0.00000
     19       4.5766      0.00000
     20       4.7038      0.00000

 k-point   432 :       0.4667    0.4667    0.4783
  band No.  band energies     occupation 
      1     -15.2569      2.00000
      2     -15.2436      2.00000
      3     -15.0778      2.00000
      4     -15.0640      2.00000
      5      -2.9913      2.00000
      6      -2.9127      2.00000
      7      -2.8352      2.00000
      8      -2.7665      2.00000
      9      -1.8430      2.00000
     10      -1.8088      2.00000
     11      -1.1205      2.00000
     12      -1.1103      2.00000
     13       0.3831      2.00000
     14       0.3901      2.00000
     15       0.9118      2.00000
     16       0.9290      2.00000
     17       3.8990      0.00000
     18       3.9596      0.00000
     19       4.5223      0.00000
     20       4.5806      0.00000


--------------------------------------------------------------------------------------------------------


 soft charge-density along one line, spin component           1
         0         1         2         3         4         5         6         7         8         9
 total charge-density along one line
 
 pseudopotential strength for first ion, spin component:           1
 -4.545   0.000   0.010  -0.000  -0.000  -4.718   0.000   0.011
  0.000  -4.553  -0.000   0.016   0.000   0.000  -4.727  -0.000
  0.010  -0.000  -4.560   0.000   0.000   0.011  -0.000  -4.736
 -0.000   0.016   0.000  -4.553   0.000  -0.000   0.018   0.000
 -0.000   0.000   0.000   0.000  -4.525  -0.000   0.000   0.000
 -4.718   0.000   0.011  -0.000  -0.000  -4.801   0.000   0.012
  0.000  -4.727  -0.000   0.018   0.000   0.000  -4.811  -0.000
  0.011  -0.000  -4.736   0.000   0.000   0.012  -0.000  -4.821
 -0.000   0.018   0.000  -4.727   0.000  -0.000   0.019   0.000
 -0.000   0.000   0.000   0.000  -4.696  -0.000   0.000   0.000
 -0.001   0.000   0.003  -0.000   0.000  -0.001   0.000   0.003
  0.001  -0.000  -0.004   0.000  -0.000   0.001  -0.000  -0.004
 -0.000   0.000   0.000  -0.000   0.000  -0.000   0.000   0.000
 -0.000  -0.000   0.000  -0.000  -0.000  -0.000  -0.000   0.000
 -0.000  -0.000   0.000   0.000  -0.000  -0.000  -0.000   0.000
 total augmentation occupancy for first ion, spin component:           1
  9.084   0.000  -4.266   0.000   0.000  -6.212   0.000   3.075   0.000   0.000   0.009   0.004   0.000   0.000   0.000
  0.000   8.381   0.000  -5.042   0.000   0.000  -5.685   0.000   3.638   0.000   0.000   0.000   0.000   0.000   0.000
 -4.266   0.000   6.936   0.000  -0.000   3.080   0.000  -4.770   0.000  -0.000   0.706   0.061   0.000   0.000   0.000
  0.000  -5.042   0.000   8.381   0.000   0.000   3.638   0.000  -5.685   0.000   0.000   0.000   0.000   0.000   0.000
  0.000   0.000   0.000   0.000   2.787  -0.000   0.000   0.000   0.000  -1.622   0.000   0.000   0.000   0.000   0.000
 -6.212   0.000   3.080   0.000   0.000   4.317   0.000  -2.242   0.000   0.000  -0.021  -0.001   0.000   0.000   0.000
  0.000  -5.685   0.000   3.638   0.000   0.000   3.922   0.000  -2.649   0.000   0.000   0.000   0.000   0.000   0.000
  3.075   0.000  -4.770   0.000   0.000  -2.242   0.000   3.315   0.000  -0.000  -0.541  -0.048   0.000   0.000   0.000
  0.000   3.638   0.000  -5.685   0.000   0.000  -2.649   0.000   3.922   0.000   0.000   0.000   0.000   0.000   0.000
  0.000   0.000   0.000   0.000  -1.622   0.000   0.000  -0.000   0.000   0.956   0.000   0.000   0.000   0.000   0.000
  0.009   0.000   0.706   0.000  -0.000  -0.021   0.000  -0.541   0.000   0.000   2.147   0.132   0.000   0.000   0.000
  0.004   0.000   0.061   0.000   0.000  -0.001   0.000  -0.048   0.000   0.000   0.132   0.013   0.000   0.000   0.000
  0.000   0.000   0.000   0.000   0.000   0.000   0.000   0.000   0.000   0.000   0.000   0.000   0.538   0.000  -0.022
  0.000   0.000   0.000   0.000   0.000   0.000   0.000   0.000   0.000   0.000   0.000   0.000   0.000   0.626   0.000
  0.000   0.000   0.000   0.000   0.000   0.000   0.000   0.000   0.000   0.000   0.000   0.000  -0.022   0.000   0.538


------------------------ aborting loop because EDIFF is reached ----------------------------------------


    CHARGE:  cpu time    0.0761: real time    0.0763
    FORLOC:  cpu time    0.0005: real time    0.0005
    FORNL :  cpu time    0.1991: real time    0.1997
    STRESS:  cpu time    0.4849: real time    0.4861
    FORCOR:  cpu time    0.0043: real time    0.0044
    FORHAR:  cpu time    0.0014: real time    0.0015
    MIXING:  cpu time    0.0006: real time    0.0006
    OFIELD:  cpu time    0.0001: real time    0.0001

  FORCE on cell =-STRESS in cart. coord.  units (eV):
  Direction    XX          YY          ZZ          XY          YZ          ZX
  --------------------------------------------------------------------------------------
  Alpha Z   133.34338   133.34338   133.34338
  Ewald    -559.10417  -559.10417  -442.92205    -0.00000     0.00000     0.00000
  Hartree   162.38436   162.38436   183.06739    -0.00000    -0.00000    -0.00000
  E(xc)    -152.34463  -152.34463  -153.30012     0.00000    -0.00000     0.00000
  Local    -108.34603  -108.34603  -234.25271     0.00000     0.00000    -0.00000
  n-local   -94.03456   -95.08945   -91.87849    -0.01934     0.14199    -0.09171
  augment    37.07548    37.07548    36.38775    -0.00000     0.00000    -0.00000
  Kinetic   581.89077   581.21606   569.55642    -1.18767    -0.80538    -1.39166
  Fock        0.00000     0.00000     0.00000     0.00000     0.00000     0.00000
  -------------------------------------------------------------------------------------
  Total      -0.00020    -0.00020     0.00158    -0.00000     0.00000     0.00000
  in kB      -0.00499    -0.00499     0.03914    -0.00000     0.00000     0.00000
  external pressure =        0.01 kB  Pullay stress =        0.00 kB


 VOLUME and BASIS-vectors are now :
 -----------------------------------------------------------------------------
  energy-cutoff  :      500.00
  volume of cell :       64.52
      direct lattice vectors                 reciprocal lattice vectors
     4.661789856  0.000000000  0.000000000     0.214509884  0.000000000  0.000000000
     0.000000000  4.661789856  0.000000000     0.000000000  0.214509884  0.000000000
     0.000000000  0.000000000  2.968801281     0.000000000  0.000000000  0.336836287

  length of vectors
     4.661789856  4.661789856  2.968801281     0.214509884  0.214509884  0.336836287


 FORCES acting on ions
    electron-ion (+dipol)            ewald-force                    non-local-force                 convergence-correction
 -----------------------------------------------------------------------------------------------
   0.330E-14 -.582E-14 0.216E-13   0.426E-13 0.142E-13 -.649E-14   0.000E+00 0.000E+00 0.000E+00   0.112E-13 -.367E-14 0.414E-14
   0.147E-12 0.158E-12 -.224E-12   0.497E-13 0.000E+00 -.573E-14   0.000E+00 0.000E+00 0.000E+00   -.531E-14 0.864E-14 -.325E-14
   -.172E+02 0.172E+02 0.117E-11   0.205E+02 -.205E+02 0.420E-14   -.326E+01 0.326E+01 -.347E-17   -.924E-04 0.924E-04 -.292E-13
   0.172E+02 -.172E+02 0.243E-11   -.205E+02 0.205E+02 0.445E-14   0.326E+01 -.326E+01 0.347E-17   0.924E-04 -.924E-04 0.286E-14
   -.172E+02 -.172E+02 0.660E-06   0.205E+02 0.205E+02 0.468E-14   -.326E+01 -.326E+01 0.347E-17   -.924E-04 -.924E-04 0.618E-14
   0.172E+02 0.172E+02 -.660E-06   -.205E+02 -.205E+02 0.488E-14   0.326E+01 0.326E+01 -.347E-17   0.924E-04 0.924E-04 -.169E-13
 -----------------------------------------------------------------------------------------------
   0.994E-12 -.184E-11 0.250E-11   0.355E-14 0.355E-14 0.599E-14   0.000E+00 0.000E+00 0.000E+00   0.481E-13 -.248E-13 -.362E-13
 
 
 POSITION                                       TOTAL-FORCE (eV/Angst)
 -----------------------------------------------------------------------------------
      0.00000      0.00000      0.00000        -0.000000     -0.000000      0.000000
      2.33089      2.33089      1.48440        -0.000000     -0.000000      0.000000
      0.91056      3.75123      1.48440        -0.000038      0.000038      0.000000
      3.75123      0.91056      1.48440         0.000038     -0.000038      0.000000
      3.24146      3.24146      0.00000        -0.000038     -0.000038      0.000000
      1.42033      1.42033      0.00000         0.000038      0.000038      0.000000
 -----------------------------------------------------------------------------------
    total drift:                                0.000000     -0.000000      0.000000


--------------------------------------------------------------------------------------------------------



  FREE ENERGIE OF THE ION-ELECTRON SYSTEM (eV)
  ---------------------------------------------------
  free  energy   TOTEN  =       -52.81956925 eV

  energy  without entropy=      -52.81956925  energy(sigma->0) =      -52.81956925
 


--------------------------------------------------------------------------------------------------------


    POTLOK:  cpu time    0.0066: real time    0.0066


--------------------------------------------------------------------------------------------------------


     LOOP+:  cpu time   40.9071: real time   41.0230
    4ORBIT:  cpu time    0.0000: real time    0.0000

 total amount of memory used by VASP MPI-rank0    51849. kBytes
=======================================================================

   base      :      30000. kBytes
   nonl-proj :      15358. kBytes
   fftplans  :        310. kBytes
   grid      :        504. kBytes
   one-center:         10. kBytes
   wavefun   :       5667. kBytes
 
  
  
 General timing and accounting informations for this job:
 ========================================================
  
                  Total CPU time used (sec):       42.628
                            User time (sec):       42.329
                          System time (sec):        0.298
                         Elapsed time (sec):       44.258
  
                   Maximum memory used (kb):      114176.
                   Average memory used (kb):           0.
  
                          Minor page faults:        51785
                          Major page faults:            0
                 Voluntary context switches:         1081
