<?xml version="1.0" encoding="ISO-8859-1"?>
<modeling>
 <generator>
  <i name="program" type="string">vasp </i>
  <i name="version" type="string">5.4.4.18Apr17-6-g9f103f2a35  </i>
  <i name="subversion" type="string">(build Jun 26 2021 01:31:14) complex            parallel </i>
  <i name="platform" type="string">LinuxIFC </i>
  <i name="date" type="string">2022 04 20 </i>
  <i name="time" type="string">15:01:42 </i>
 </generator>
 <incar>
  <i type="string" name="SYSTEM"> vaspCalc</i>
  <i type="int" name="ISTART">     0</i>
  <i type="string" name="PREC">accurate</i>
  <i type="string" name="ALGO"> Fast</i>
  <i type="int" name="ISPIN">     1</i>
  <i type="int" name="ICHARG">     1</i>
  <i type="int" name="NELM">   120</i>
  <i type="int" name="NELMIN">     4</i>
  <i name="EDIFF">      0.00000001</i>
  <i name="ENCUT">    500.00000000</i>
  <i type="int" name="ISMEAR">     0</i>
  <i name="SIGMA">      0.04000000</i>
  <i type="int" name="NWRITE">     1</i>
  <i type="logical" name="LWAVE"> F  </i>
  <i type="logical" name="LCHARG"> F  </i>
  <v type="int" name="KPOINT_BSE">    -1     0     0     0</v>
  <i type="int" name="NELM">   120</i>
  <i type="string" name="GGA"> PE</i>
 </incar>
 <structure name="primitive_cell" >
  <crystal>
   <varray name="basis" >
    <v>       4.66178986       0.00000000       0.00000000 </v>
    <v>       0.00000000       4.66178986       0.00000000 </v>
    <v>       0.00000000       0.00000000       2.96880128 </v>
   </varray>
   <i name="volume">     64.51883454 </i>
   <varray name="rec_basis" >
    <v>       0.21450988       0.00000000       0.00000000 </v>
    <v>       0.00000000       0.21450988       0.00000000 </v>
    <v>       0.00000000       0.00000000       0.33683629 </v>
   </varray>
  </crystal>
  <varray name="positions" >
   <v>       0.00000000       0.00000000       0.00000000 </v>
   <v>       0.19532460      -0.19532460      -0.50000000 </v>
   <v>      -0.19532460       0.19532460      -0.50000000 </v>
   <v>      -0.30467540      -0.30467540       0.00000000 </v>
   <v>       0.30467540       0.30467540       0.00000000 </v>
   <v>      -0.50000000      -0.50000000      -0.50000000 </v>
  </varray>
 </structure>
 <varray name="primitive_index" >
  <v type="int" >        1 </v>
  <v type="int" >        3 </v>
  <v type="int" >        4 </v>
  <v type="int" >        5 </v>
  <v type="int" >        6 </v>
  <v type="int" >        2 </v>
 </varray>
 <kpoints>
  <generation param="Gamma">
   <v type="int" name="divisions">      15       15       23 </v>
   <v name="usershift">      0.00000000       0.00000000       0.00000000 </v>
   <v name="genvec1">      0.06666667       0.00000000       0.00000000 </v>
   <v name="genvec2">      0.00000000       0.06666667       0.00000000 </v>
   <v name="genvec3">      0.00000000       0.00000000       0.04347826 </v>
   <v name="shift">      0.00000000       0.00000000       0.00000000 </v>
  </generation>
  <varray name="kpointlist" >
   <v>       0.00000000       0.00000000       0.00000000 </v>
   <v>       0.06666667       0.00000000       0.00000000 </v>
   <v>       0.13333333       0.00000000       0.00000000 </v>
   <v>       0.20000000       0.00000000       0.00000000 </v>
   <v>       0.26666667       0.00000000       0.00000000 </v>
   <v>       0.33333333       0.00000000       0.00000000 </v>
   <v>       0.40000000       0.00000000       0.00000000 </v>
   <v>       0.46666667       0.00000000       0.00000000 </v>
   <v>       0.06666667       0.06666667       0.00000000 </v>
   <v>       0.13333333       0.06666667       0.00000000 </v>
   <v>       0.20000000       0.06666667       0.00000000 </v>
   <v>       0.26666667       0.06666667       0.00000000 </v>
   <v>       0.33333333       0.06666667       0.00000000 </v>
   <v>       0.40000000       0.06666667       0.00000000 </v>
   <v>       0.46666667       0.06666667       0.00000000 </v>
   <v>       0.13333333       0.13333333       0.00000000 </v>
   <v>       0.20000000       0.13333333       0.00000000 </v>
   <v>       0.26666667       0.13333333       0.00000000 </v>
   <v>       0.33333333       0.13333333       0.00000000 </v>
   <v>       0.40000000       0.13333333       0.00000000 </v>
   <v>       0.46666667       0.13333333       0.00000000 </v>
   <v>       0.20000000       0.20000000       0.00000000 </v>
   <v>       0.26666667       0.20000000       0.00000000 </v>
   <v>       0.33333333       0.20000000       0.00000000 </v>
   <v>       0.40000000       0.20000000       0.00000000 </v>
   <v>       0.46666667       0.20000000       0.00000000 </v>
   <v>       0.26666667       0.26666667       0.00000000 </v>
   <v>       0.33333333       0.26666667       0.00000000 </v>
   <v>       0.40000000       0.26666667       0.00000000 </v>
   <v>       0.46666667       0.26666667       0.00000000 </v>
   <v>       0.33333333       0.33333333       0.00000000 </v>
   <v>       0.40000000       0.33333333       0.00000000 </v>
   <v>       0.46666667       0.33333333       0.00000000 </v>
   <v>       0.40000000       0.40000000       0.00000000 </v>
   <v>       0.46666667       0.40000000       0.00000000 </v>
   <v>       0.46666667       0.46666667       0.00000000 </v>
   <v>       0.00000000       0.00000000       0.04347826 </v>
   <v>       0.06666667       0.00000000       0.04347826 </v>
   <v>       0.13333333       0.00000000       0.04347826 </v>
   <v>       0.20000000       0.00000000       0.04347826 </v>
   <v>       0.26666667       0.00000000       0.04347826 </v>
   <v>       0.33333333       0.00000000       0.04347826 </v>
   <v>       0.40000000       0.00000000       0.04347826 </v>
   <v>       0.46666667       0.00000000       0.04347826 </v>
   <v>       0.06666667       0.06666667       0.04347826 </v>
   <v>       0.13333333       0.06666667       0.04347826 </v>
   <v>       0.20000000       0.06666667       0.04347826 </v>
   <v>       0.26666667       0.06666667       0.04347826 </v>
   <v>       0.33333333       0.06666667       0.04347826 </v>
   <v>       0.40000000       0.06666667       0.04347826 </v>
   <v>       0.46666667       0.06666667       0.04347826 </v>
   <v>       0.13333333       0.13333333       0.04347826 </v>
   <v>       0.20000000       0.13333333       0.04347826 </v>
   <v>       0.26666667       0.13333333       0.04347826 </v>
   <v>       0.33333333       0.13333333       0.04347826 </v>
   <v>       0.40000000       0.13333333       0.04347826 </v>
   <v>       0.46666667       0.13333333       0.04347826 </v>
   <v>       0.20000000       0.20000000       0.04347826 </v>
   <v>       0.26666667       0.20000000       0.04347826 </v>
   <v>       0.33333333       0.20000000       0.04347826 </v>
   <v>       0.40000000       0.20000000       0.04347826 </v>
   <v>       0.46666667       0.20000000       0.04347826 </v>
   <v>       0.26666667       0.26666667       0.04347826 </v>
   <v>       0.33333333       0.26666667       0.04347826 </v>
   <v>       0.40000000       0.26666667       0.04347826 </v>
   <v>       0.46666667       0.26666667       0.04347826 </v>
   <v>       0.33333333       0.33333333       0.04347826 </v>
   <v>       0.40000000       0.33333333       0.04347826 </v>
   <v>       0.46666667       0.33333333       0.04347826 </v>
   <v>       0.40000000       0.40000000       0.04347826 </v>
   <v>       0.46666667       0.40000000       0.04347826 </v>
   <v>       0.46666667       0.46666667       0.04347826 </v>
   <v>       0.00000000       0.00000000       0.08695652 </v>
   <v>       0.06666667       0.00000000       0.08695652 </v>
   <v>       0.13333333       0.00000000       0.08695652 </v>
   <v>       0.20000000       0.00000000       0.08695652 </v>
   <v>       0.26666667       0.00000000       0.08695652 </v>
   <v>       0.33333333       0.00000000       0.08695652 </v>
   <v>       0.40000000       0.00000000       0.08695652 </v>
   <v>       0.46666667       0.00000000       0.08695652 </v>
   <v>       0.06666667       0.06666667       0.08695652 </v>
   <v>       0.13333333       0.06666667       0.08695652 </v>
   <v>       0.20000000       0.06666667       0.08695652 </v>
   <v>       0.26666667       0.06666667       0.08695652 </v>
   <v>       0.33333333       0.06666667       0.08695652 </v>
   <v>       0.40000000       0.06666667       0.08695652 </v>
   <v>       0.46666667       0.06666667       0.08695652 </v>
   <v>       0.13333333       0.13333333       0.08695652 </v>
   <v>       0.20000000       0.13333333       0.08695652 </v>
   <v>       0.26666667       0.13333333       0.08695652 </v>
   <v>       0.33333333       0.13333333       0.08695652 </v>
   <v>       0.40000000       0.13333333       0.08695652 </v>
   <v>       0.46666667       0.13333333       0.08695652 </v>
   <v>       0.20000000       0.20000000       0.08695652 </v>
   <v>       0.26666667       0.20000000       0.08695652 </v>
   <v>       0.33333333       0.20000000       0.08695652 </v>
   <v>       0.40000000       0.20000000       0.08695652 </v>
   <v>       0.46666667       0.20000000       0.08695652 </v>
   <v>       0.26666667       0.26666667       0.08695652 </v>
   <v>       0.33333333       0.26666667       0.08695652 </v>
   <v>       0.40000000       0.26666667       0.08695652 </v>
   <v>       0.46666667       0.26666667       0.08695652 </v>
   <v>       0.33333333       0.33333333       0.08695652 </v>
   <v>       0.40000000       0.33333333       0.08695652 </v>
   <v>       0.46666667       0.33333333       0.08695652 </v>
   <v>       0.40000000       0.40000000       0.08695652 </v>
   <v>       0.46666667       0.40000000       0.08695652 </v>
   <v>       0.46666667       0.46666667       0.08695652 </v>
   <v>       0.00000000       0.00000000       0.13043478 </v>
   <v>       0.06666667       0.00000000       0.13043478 </v>
   <v>       0.13333333       0.00000000       0.13043478 </v>
   <v>       0.20000000       0.00000000       0.13043478 </v>
   <v>       0.26666667       0.00000000       0.13043478 </v>
   <v>       0.33333333       0.00000000       0.13043478 </v>
   <v>       0.40000000       0.00000000       0.13043478 </v>
   <v>       0.46666667       0.00000000       0.13043478 </v>
   <v>       0.06666667       0.06666667       0.13043478 </v>
   <v>       0.13333333       0.06666667       0.13043478 </v>
   <v>       0.20000000       0.06666667       0.13043478 </v>
   <v>       0.26666667       0.06666667       0.13043478 </v>
   <v>       0.33333333       0.06666667       0.13043478 </v>
   <v>       0.40000000       0.06666667       0.13043478 </v>
   <v>       0.46666667       0.06666667       0.13043478 </v>
   <v>       0.13333333       0.13333333       0.13043478 </v>
   <v>       0.20000000       0.13333333       0.13043478 </v>
   <v>       0.26666667       0.13333333       0.13043478 </v>
   <v>       0.33333333       0.13333333       0.13043478 </v>
   <v>       0.40000000       0.13333333       0.13043478 </v>
   <v>       0.46666667       0.13333333       0.13043478 </v>
   <v>       0.20000000       0.20000000       0.13043478 </v>
   <v>       0.26666667       0.20000000       0.13043478 </v>
   <v>       0.33333333       0.20000000       0.13043478 </v>
   <v>       0.40000000       0.20000000       0.13043478 </v>
   <v>       0.46666667       0.20000000       0.13043478 </v>
   <v>       0.26666667       0.26666667       0.13043478 </v>
   <v>       0.33333333       0.26666667       0.13043478 </v>
   <v>       0.40000000       0.26666667       0.13043478 </v>
   <v>       0.46666667       0.26666667       0.13043478 </v>
   <v>       0.33333333       0.33333333       0.13043478 </v>
   <v>       0.40000000       0.33333333       0.13043478 </v>
   <v>       0.46666667       0.33333333       0.13043478 </v>
   <v>       0.40000000       0.40000000       0.13043478 </v>
   <v>       0.46666667       0.40000000       0.13043478 </v>
   <v>       0.46666667       0.46666667       0.13043478 </v>
   <v>       0.00000000       0.00000000       0.17391304 </v>
   <v>       0.06666667       0.00000000       0.17391304 </v>
   <v>       0.13333333       0.00000000       0.17391304 </v>
   <v>       0.20000000       0.00000000       0.17391304 </v>
   <v>       0.26666667       0.00000000       0.17391304 </v>
   <v>       0.33333333       0.00000000       0.17391304 </v>
   <v>       0.40000000       0.00000000       0.17391304 </v>
   <v>       0.46666667       0.00000000       0.17391304 </v>
   <v>       0.06666667       0.06666667       0.17391304 </v>
   <v>       0.13333333       0.06666667       0.17391304 </v>
   <v>       0.20000000       0.06666667       0.17391304 </v>
   <v>       0.26666667       0.06666667       0.17391304 </v>
   <v>       0.33333333       0.06666667       0.17391304 </v>
   <v>       0.40000000       0.06666667       0.17391304 </v>
   <v>       0.46666667       0.06666667       0.17391304 </v>
   <v>       0.13333333       0.13333333       0.17391304 </v>
   <v>       0.20000000       0.13333333       0.17391304 </v>
   <v>       0.26666667       0.13333333       0.17391304 </v>
   <v>       0.33333333       0.13333333       0.17391304 </v>
   <v>       0.40000000       0.13333333       0.17391304 </v>
   <v>       0.46666667       0.13333333       0.17391304 </v>
   <v>       0.20000000       0.20000000       0.17391304 </v>
   <v>       0.26666667       0.20000000       0.17391304 </v>
   <v>       0.33333333       0.20000000       0.17391304 </v>
   <v>       0.40000000       0.20000000       0.17391304 </v>
   <v>       0.46666667       0.20000000       0.17391304 </v>
   <v>       0.26666667       0.26666667       0.17391304 </v>
   <v>       0.33333333       0.26666667       0.17391304 </v>
   <v>       0.40000000       0.26666667       0.17391304 </v>
   <v>       0.46666667       0.26666667       0.17391304 </v>
   <v>       0.33333333       0.33333333       0.17391304 </v>
   <v>       0.40000000       0.33333333       0.17391304 </v>
   <v>       0.46666667       0.33333333       0.17391304 </v>
   <v>       0.40000000       0.40000000       0.17391304 </v>
   <v>       0.46666667       0.40000000       0.17391304 </v>
   <v>       0.46666667       0.46666667       0.17391304 </v>
   <v>       0.00000000       0.00000000       0.21739130 </v>
   <v>       0.06666667       0.00000000       0.21739130 </v>
   <v>       0.13333333       0.00000000       0.21739130 </v>
   <v>       0.20000000       0.00000000       0.21739130 </v>
   <v>       0.26666667       0.00000000       0.21739130 </v>
   <v>       0.33333333       0.00000000       0.21739130 </v>
   <v>       0.40000000       0.00000000       0.21739130 </v>
   <v>       0.46666667       0.00000000       0.21739130 </v>
   <v>       0.06666667       0.06666667       0.21739130 </v>
   <v>       0.13333333       0.06666667       0.21739130 </v>
   <v>       0.20000000       0.06666667       0.21739130 </v>
   <v>       0.26666667       0.06666667       0.21739130 </v>
   <v>       0.33333333       0.06666667       0.21739130 </v>
   <v>       0.40000000       0.06666667       0.21739130 </v>
   <v>       0.46666667       0.06666667       0.21739130 </v>
   <v>       0.13333333       0.13333333       0.21739130 </v>
   <v>       0.20000000       0.13333333       0.21739130 </v>
   <v>       0.26666667       0.13333333       0.21739130 </v>
   <v>       0.33333333       0.13333333       0.21739130 </v>
   <v>       0.40000000       0.13333333       0.21739130 </v>
   <v>       0.46666667       0.13333333       0.21739130 </v>
   <v>       0.20000000       0.20000000       0.21739130 </v>
   <v>       0.26666667       0.20000000       0.21739130 </v>
   <v>       0.33333333       0.20000000       0.21739130 </v>
   <v>       0.40000000       0.20000000       0.21739130 </v>
   <v>       0.46666667       0.20000000       0.21739130 </v>
   <v>       0.26666667       0.26666667       0.21739130 </v>
   <v>       0.33333333       0.26666667       0.21739130 </v>
   <v>       0.40000000       0.26666667       0.21739130 </v>
   <v>       0.46666667       0.26666667       0.21739130 </v>
   <v>       0.33333333       0.33333333       0.21739130 </v>
   <v>       0.40000000       0.33333333       0.21739130 </v>
   <v>       0.46666667       0.33333333       0.21739130 </v>
   <v>       0.40000000       0.40000000       0.21739130 </v>
   <v>       0.46666667       0.40000000       0.21739130 </v>
   <v>       0.46666667       0.46666667       0.21739130 </v>
   <v>       0.00000000       0.00000000       0.26086957 </v>
   <v>       0.06666667       0.00000000       0.26086957 </v>
   <v>       0.13333333       0.00000000       0.26086957 </v>
   <v>       0.20000000       0.00000000       0.26086957 </v>
   <v>       0.26666667       0.00000000       0.26086957 </v>
   <v>       0.33333333       0.00000000       0.26086957 </v>
   <v>       0.40000000       0.00000000       0.26086957 </v>
   <v>       0.46666667       0.00000000       0.26086957 </v>
   <v>       0.06666667       0.06666667       0.26086957 </v>
   <v>       0.13333333       0.06666667       0.26086957 </v>
   <v>       0.20000000       0.06666667       0.26086957 </v>
   <v>       0.26666667       0.06666667       0.26086957 </v>
   <v>       0.33333333       0.06666667       0.26086957 </v>
   <v>       0.40000000       0.06666667       0.26086957 </v>
   <v>       0.46666667       0.06666667       0.26086957 </v>
   <v>       0.13333333       0.13333333       0.26086957 </v>
   <v>       0.20000000       0.13333333       0.26086957 </v>
   <v>       0.26666667       0.13333333       0.26086957 </v>
   <v>       0.33333333       0.13333333       0.26086957 </v>
   <v>       0.40000000       0.13333333       0.26086957 </v>
   <v>       0.46666667       0.13333333       0.26086957 </v>
   <v>       0.20000000       0.20000000       0.26086957 </v>
   <v>       0.26666667       0.20000000       0.26086957 </v>
   <v>       0.33333333       0.20000000       0.26086957 </v>
   <v>       0.40000000       0.20000000       0.26086957 </v>
   <v>       0.46666667       0.20000000       0.26086957 </v>
   <v>       0.26666667       0.26666667       0.26086957 </v>
   <v>       0.33333333       0.26666667       0.26086957 </v>
   <v>       0.40000000       0.26666667       0.26086957 </v>
   <v>       0.46666667       0.26666667       0.26086957 </v>
   <v>       0.33333333       0.33333333       0.26086957 </v>
   <v>       0.40000000       0.33333333       0.26086957 </v>
   <v>       0.46666667       0.33333333       0.26086957 </v>
   <v>       0.40000000       0.40000000       0.26086957 </v>
   <v>       0.46666667       0.40000000       0.26086957 </v>
   <v>       0.46666667       0.46666667       0.26086957 </v>
   <v>       0.00000000       0.00000000       0.30434783 </v>
   <v>       0.06666667       0.00000000       0.30434783 </v>
   <v>       0.13333333       0.00000000       0.30434783 </v>
   <v>       0.20000000       0.00000000       0.30434783 </v>
   <v>       0.26666667       0.00000000       0.30434783 </v>
   <v>       0.33333333       0.00000000       0.30434783 </v>
   <v>       0.40000000       0.00000000       0.30434783 </v>
   <v>       0.46666667       0.00000000       0.30434783 </v>
   <v>       0.06666667       0.06666667       0.30434783 </v>
   <v>       0.13333333       0.06666667       0.30434783 </v>
   <v>       0.20000000       0.06666667       0.30434783 </v>
   <v>       0.26666667       0.06666667       0.30434783 </v>
   <v>       0.33333333       0.06666667       0.30434783 </v>
   <v>       0.40000000       0.06666667       0.30434783 </v>
   <v>       0.46666667       0.06666667       0.30434783 </v>
   <v>       0.13333333       0.13333333       0.30434783 </v>
   <v>       0.20000000       0.13333333       0.30434783 </v>
   <v>       0.26666667       0.13333333       0.30434783 </v>
   <v>       0.33333333       0.13333333       0.30434783 </v>
   <v>       0.40000000       0.13333333       0.30434783 </v>
   <v>       0.46666667       0.13333333       0.30434783 </v>
   <v>       0.20000000       0.20000000       0.30434783 </v>
   <v>       0.26666667       0.20000000       0.30434783 </v>
   <v>       0.33333333       0.20000000       0.30434783 </v>
   <v>       0.40000000       0.20000000       0.30434783 </v>
   <v>       0.46666667       0.20000000       0.30434783 </v>
   <v>       0.26666667       0.26666667       0.30434783 </v>
   <v>       0.33333333       0.26666667       0.30434783 </v>
   <v>       0.40000000       0.26666667       0.30434783 </v>
   <v>       0.46666667       0.26666667       0.30434783 </v>
   <v>       0.33333333       0.33333333       0.30434783 </v>
   <v>       0.40000000       0.33333333       0.30434783 </v>
   <v>       0.46666667       0.33333333       0.30434783 </v>
   <v>       0.40000000       0.40000000       0.30434783 </v>
   <v>       0.46666667       0.40000000       0.30434783 </v>
   <v>       0.46666667       0.46666667       0.30434783 </v>
   <v>       0.00000000       0.00000000       0.34782609 </v>
   <v>       0.06666667       0.00000000       0.34782609 </v>
   <v>       0.13333333       0.00000000       0.34782609 </v>
   <v>       0.20000000       0.00000000       0.34782609 </v>
   <v>       0.26666667       0.00000000       0.34782609 </v>
   <v>       0.33333333       0.00000000       0.34782609 </v>
   <v>       0.40000000       0.00000000       0.34782609 </v>
   <v>       0.46666667       0.00000000       0.34782609 </v>
   <v>       0.06666667       0.06666667       0.34782609 </v>
   <v>       0.13333333       0.06666667       0.34782609 </v>
   <v>       0.20000000       0.06666667       0.34782609 </v>
   <v>       0.26666667       0.06666667       0.34782609 </v>
   <v>       0.33333333       0.06666667       0.34782609 </v>
   <v>       0.40000000       0.06666667       0.34782609 </v>
   <v>       0.46666667       0.06666667       0.34782609 </v>
   <v>       0.13333333       0.13333333       0.34782609 </v>
   <v>       0.20000000       0.13333333       0.34782609 </v>
   <v>       0.26666667       0.13333333       0.34782609 </v>
   <v>       0.33333333       0.13333333       0.34782609 </v>
   <v>       0.40000000       0.13333333       0.34782609 </v>
   <v>       0.46666667       0.13333333       0.34782609 </v>
   <v>       0.20000000       0.20000000       0.34782609 </v>
   <v>       0.26666667       0.20000000       0.34782609 </v>
   <v>       0.33333333       0.20000000       0.34782609 </v>
   <v>       0.40000000       0.20000000       0.34782609 </v>
   <v>       0.46666667       0.20000000       0.34782609 </v>
   <v>       0.26666667       0.26666667       0.34782609 </v>
   <v>       0.33333333       0.26666667       0.34782609 </v>
   <v>       0.40000000       0.26666667       0.34782609 </v>
   <v>       0.46666667       0.26666667       0.34782609 </v>
   <v>       0.33333333       0.33333333       0.34782609 </v>
   <v>       0.40000000       0.33333333       0.34782609 </v>
   <v>       0.46666667       0.33333333       0.34782609 </v>
   <v>       0.40000000       0.40000000       0.34782609 </v>
   <v>       0.46666667       0.40000000       0.34782609 </v>
   <v>       0.46666667       0.46666667       0.34782609 </v>
   <v>       0.00000000       0.00000000       0.39130435 </v>
   <v>       0.06666667       0.00000000       0.39130435 </v>
   <v>       0.13333333       0.00000000       0.39130435 </v>
   <v>       0.20000000       0.00000000       0.39130435 </v>
   <v>       0.26666667       0.00000000       0.39130435 </v>
   <v>       0.33333333       0.00000000       0.39130435 </v>
   <v>       0.40000000       0.00000000       0.39130435 </v>
   <v>       0.46666667       0.00000000       0.39130435 </v>
   <v>       0.06666667       0.06666667       0.39130435 </v>
   <v>       0.13333333       0.06666667       0.39130435 </v>
   <v>       0.20000000       0.06666667       0.39130435 </v>
   <v>       0.26666667       0.06666667       0.39130435 </v>
   <v>       0.33333333       0.06666667       0.39130435 </v>
   <v>       0.40000000       0.06666667       0.39130435 </v>
   <v>       0.46666667       0.06666667       0.39130435 </v>
   <v>       0.13333333       0.13333333       0.39130435 </v>
   <v>       0.20000000       0.13333333       0.39130435 </v>
   <v>       0.26666667       0.13333333       0.39130435 </v>
   <v>       0.33333333       0.13333333       0.39130435 </v>
   <v>       0.40000000       0.13333333       0.39130435 </v>
   <v>       0.46666667       0.13333333       0.39130435 </v>
   <v>       0.20000000       0.20000000       0.39130435 </v>
   <v>       0.26666667       0.20000000       0.39130435 </v>
   <v>       0.33333333       0.20000000       0.39130435 </v>
   <v>       0.40000000       0.20000000       0.39130435 </v>
   <v>       0.46666667       0.20000000       0.39130435 </v>
   <v>       0.26666667       0.26666667       0.39130435 </v>
   <v>       0.33333333       0.26666667       0.39130435 </v>
   <v>       0.40000000       0.26666667       0.39130435 </v>
   <v>       0.46666667       0.26666667       0.39130435 </v>
   <v>       0.33333333       0.33333333       0.39130435 </v>
   <v>       0.40000000       0.33333333       0.39130435 </v>
   <v>       0.46666667       0.33333333       0.39130435 </v>
   <v>       0.40000000       0.40000000       0.39130435 </v>
   <v>       0.46666667       0.40000000       0.39130435 </v>
   <v>       0.46666667       0.46666667       0.39130435 </v>
   <v>       0.00000000       0.00000000       0.43478261 </v>
   <v>       0.06666667       0.00000000       0.43478261 </v>
   <v>       0.13333333       0.00000000       0.43478261 </v>
   <v>       0.20000000       0.00000000       0.43478261 </v>
   <v>       0.26666667       0.00000000       0.43478261 </v>
   <v>       0.33333333       0.00000000       0.43478261 </v>
   <v>       0.40000000       0.00000000       0.43478261 </v>
   <v>       0.46666667       0.00000000       0.43478261 </v>
   <v>       0.06666667       0.06666667       0.43478261 </v>
   <v>       0.13333333       0.06666667       0.43478261 </v>
   <v>       0.20000000       0.06666667       0.43478261 </v>
   <v>       0.26666667       0.06666667       0.43478261 </v>
   <v>       0.33333333       0.06666667       0.43478261 </v>
   <v>       0.40000000       0.06666667       0.43478261 </v>
   <v>       0.46666667       0.06666667       0.43478261 </v>
   <v>       0.13333333       0.13333333       0.43478261 </v>
   <v>       0.20000000       0.13333333       0.43478261 </v>
   <v>       0.26666667       0.13333333       0.43478261 </v>
   <v>       0.33333333       0.13333333       0.43478261 </v>
   <v>       0.40000000       0.13333333       0.43478261 </v>
   <v>       0.46666667       0.13333333       0.43478261 </v>
   <v>       0.20000000       0.20000000       0.43478261 </v>
   <v>       0.26666667       0.20000000       0.43478261 </v>
   <v>       0.33333333       0.20000000       0.43478261 </v>
   <v>       0.40000000       0.20000000       0.43478261 </v>
   <v>       0.46666667       0.20000000       0.43478261 </v>
   <v>       0.26666667       0.26666667       0.43478261 </v>
   <v>       0.33333333       0.26666667       0.43478261 </v>
   <v>       0.40000000       0.26666667       0.43478261 </v>
   <v>       0.46666667       0.26666667       0.43478261 </v>
   <v>       0.33333333       0.33333333       0.43478261 </v>
   <v>       0.40000000       0.33333333       0.43478261 </v>
   <v>       0.46666667       0.33333333       0.43478261 </v>
   <v>       0.40000000       0.40000000       0.43478261 </v>
   <v>       0.46666667       0.40000000       0.43478261 </v>
   <v>       0.46666667       0.46666667       0.43478261 </v>
   <v>       0.00000000       0.00000000       0.47826087 </v>
   <v>       0.06666667       0.00000000       0.47826087 </v>
   <v>       0.13333333       0.00000000       0.47826087 </v>
   <v>       0.20000000       0.00000000       0.47826087 </v>
   <v>       0.26666667       0.00000000       0.47826087 </v>
   <v>       0.33333333       0.00000000       0.47826087 </v>
   <v>       0.40000000       0.00000000       0.47826087 </v>
   <v>       0.46666667       0.00000000       0.47826087 </v>
   <v>       0.06666667       0.06666667       0.47826087 </v>
   <v>       0.13333333       0.06666667       0.47826087 </v>
   <v>       0.20000000       0.06666667       0.47826087 </v>
   <v>       0.26666667       0.06666667       0.47826087 </v>
   <v>       0.33333333       0.06666667       0.47826087 </v>
   <v>       0.40000000       0.06666667       0.47826087 </v>
   <v>       0.46666667       0.06666667       0.47826087 </v>
   <v>       0.13333333       0.13333333       0.47826087 </v>
   <v>       0.20000000       0.13333333       0.47826087 </v>
   <v>       0.26666667       0.13333333       0.47826087 </v>
   <v>       0.33333333       0.13333333       0.47826087 </v>
   <v>       0.40000000       0.13333333       0.47826087 </v>
   <v>       0.46666667       0.13333333       0.47826087 </v>
   <v>       0.20000000       0.20000000       0.47826087 </v>
   <v>       0.26666667       0.20000000       0.47826087 </v>
   <v>       0.33333333       0.20000000       0.47826087 </v>
   <v>       0.40000000       0.20000000       0.47826087 </v>
   <v>       0.46666667       0.20000000       0.47826087 </v>
   <v>       0.26666667       0.26666667       0.47826087 </v>
   <v>       0.33333333       0.26666667       0.47826087 </v>
   <v>       0.40000000       0.26666667       0.47826087 </v>
   <v>       0.46666667       0.26666667       0.47826087 </v>
   <v>       0.33333333       0.33333333       0.47826087 </v>
   <v>       0.40000000       0.33333333       0.47826087 </v>
   <v>       0.46666667       0.33333333       0.47826087 </v>
   <v>       0.40000000       0.40000000       0.47826087 </v>
   <v>       0.46666667       0.40000000       0.47826087 </v>
   <v>       0.46666667       0.46666667       0.47826087 </v>
  </varray>
  <varray name="weights" >
   <v>       0.00019324 </v>
   <v>       0.00077295 </v>
   <v>       0.00077295 </v>
   <v>       0.00077295 </v>
   <v>       0.00077295 </v>
   <v>       0.00077295 </v>
   <v>       0.00077295 </v>
   <v>       0.00077295 </v>
   <v>       0.00077295 </v>
   <v>       0.00154589 </v>
   <v>       0.00154589 </v>
   <v>       0.00154589 </v>
   <v>       0.00154589 </v>
   <v>       0.00154589 </v>
   <v>       0.00154589 </v>
   <v>       0.00077295 </v>
   <v>       0.00154589 </v>
   <v>       0.00154589 </v>
   <v>       0.00154589 </v>
   <v>       0.00154589 </v>
   <v>       0.00154589 </v>
   <v>       0.00077295 </v>
   <v>       0.00154589 </v>
   <v>       0.00154589 </v>
   <v>       0.00154589 </v>
   <v>       0.00154589 </v>
   <v>       0.00077295 </v>
   <v>       0.00154589 </v>
   <v>       0.00154589 </v>
   <v>       0.00154589 </v>
   <v>       0.00077295 </v>
   <v>       0.00154589 </v>
   <v>       0.00154589 </v>
   <v>       0.00077295 </v>
   <v>       0.00154589 </v>
   <v>       0.00077295 </v>
   <v>       0.00038647 </v>
   <v>       0.00154589 </v>
   <v>       0.00154589 </v>
   <v>       0.00154589 </v>
   <v>       0.00154589 </v>
   <v>       0.00154589 </v>
   <v>       0.00154589 </v>
   <v>       0.00154589 </v>
   <v>       0.00154589 </v>
   <v>       0.00309179 </v>
   <v>       0.00309179 </v>
   <v>       0.00309179 </v>
   <v>       0.00309179 </v>
   <v>       0.00309179 </v>
   <v>       0.00309179 </v>
   <v>       0.00154589 </v>
   <v>       0.00309179 </v>
   <v>       0.00309179 </v>
   <v>       0.00309179 </v>
   <v>       0.00309179 </v>
   <v>       0.00309179 </v>
   <v>       0.00154589 </v>
   <v>       0.00309179 </v>
   <v>       0.00309179 </v>
   <v>       0.00309179 </v>
   <v>       0.00309179 </v>
   <v>       0.00154589 </v>
   <v>       0.00309179 </v>
   <v>       0.00309179 </v>
   <v>       0.00309179 </v>
   <v>       0.00154589 </v>
   <v>       0.00309179 </v>
   <v>       0.00309179 </v>
   <v>       0.00154589 </v>
   <v>       0.00309179 </v>
   <v>       0.00154589 </v>
   <v>       0.00038647 </v>
   <v>       0.00154589 </v>
   <v>       0.00154589 </v>
   <v>       0.00154589 </v>
   <v>       0.00154589 </v>
   <v>       0.00154589 </v>
   <v>       0.00154589 </v>
   <v>       0.00154589 </v>
   <v>       0.00154589 </v>
   <v>       0.00309179 </v>
   <v>       0.00309179 </v>
   <v>       0.00309179 </v>
   <v>       0.00309179 </v>
   <v>       0.00309179 </v>
   <v>       0.00309179 </v>
   <v>       0.00154589 </v>
   <v>       0.00309179 </v>
   <v>       0.00309179 </v>
   <v>       0.00309179 </v>
   <v>       0.00309179 </v>
   <v>       0.00309179 </v>
   <v>       0.00154589 </v>
   <v>       0.00309179 </v>
   <v>       0.00309179 </v>
   <v>       0.00309179 </v>
   <v>       0.00309179 </v>
   <v>       0.00154589 </v>
   <v>       0.00309179 </v>
   <v>       0.00309179 </v>
   <v>       0.00309179 </v>
   <v>       0.00154589 </v>
   <v>       0.00309179 </v>
   <v>       0.00309179 </v>
   <v>       0.00154589 </v>
   <v>       0.00309179 </v>
   <v>       0.00154589 </v>
   <v>       0.00038647 </v>
   <v>       0.00154589 </v>
   <v>       0.00154589 </v>
   <v>       0.00154589 </v>
   <v>       0.00154589 </v>
   <v>       0.00154589 </v>
   <v>       0.00154589 </v>
   <v>       0.00154589 </v>
   <v>       0.00154589 </v>
   <v>       0.00309179 </v>
   <v>       0.00309179 </v>
   <v>       0.00309179 </v>
   <v>       0.00309179 </v>
   <v>       0.00309179 </v>
   <v>       0.00309179 </v>
   <v>       0.00154589 </v>
   <v>       0.00309179 </v>
   <v>       0.00309179 </v>
   <v>       0.00309179 </v>
   <v>       0.00309179 </v>
   <v>       0.00309179 </v>
   <v>       0.00154589 </v>
   <v>       0.00309179 </v>
   <v>       0.00309179 </v>
   <v>       0.00309179 </v>
   <v>       0.00309179 </v>
   <v>       0.00154589 </v>
   <v>       0.00309179 </v>
   <v>       0.00309179 </v>
   <v>       0.00309179 </v>
   <v>       0.00154589 </v>
   <v>       0.00309179 </v>
   <v>       0.00309179 </v>
   <v>       0.00154589 </v>
   <v>       0.00309179 </v>
   <v>       0.00154589 </v>
   <v>       0.00038647 </v>
   <v>       0.00154589 </v>
   <v>       0.00154589 </v>
   <v>       0.00154589 </v>
   <v>       0.00154589 </v>
   <v>       0.00154589 </v>
   <v>       0.00154589 </v>
   <v>       0.00154589 </v>
   <v>       0.00154589 </v>
   <v>       0.00309179 </v>
   <v>       0.00309179 </v>
   <v>       0.00309179 </v>
   <v>       0.00309179 </v>
   <v>       0.00309179 </v>
   <v>       0.00309179 </v>
   <v>       0.00154589 </v>
   <v>       0.00309179 </v>
   <v>       0.00309179 </v>
   <v>       0.00309179 </v>
   <v>       0.00309179 </v>
   <v>       0.00309179 </v>
   <v>       0.00154589 </v>
   <v>       0.00309179 </v>
   <v>       0.00309179 </v>
   <v>       0.00309179 </v>
   <v>       0.00309179 </v>
   <v>       0.00154589 </v>
   <v>       0.00309179 </v>
   <v>       0.00309179 </v>
   <v>       0.00309179 </v>
   <v>       0.00154589 </v>
   <v>       0.00309179 </v>
   <v>       0.00309179 </v>
   <v>       0.00154589 </v>
   <v>       0.00309179 </v>
   <v>       0.00154589 </v>
   <v>       0.00038647 </v>
   <v>       0.00154589 </v>
   <v>       0.00154589 </v>
   <v>       0.00154589 </v>
   <v>       0.00154589 </v>
   <v>       0.00154589 </v>
   <v>       0.00154589 </v>
   <v>       0.00154589 </v>
   <v>       0.00154589 </v>
   <v>       0.00309179 </v>
   <v>       0.00309179 </v>
   <v>       0.00309179 </v>
   <v>       0.00309179 </v>
   <v>       0.00309179 </v>
   <v>       0.00309179 </v>
   <v>       0.00154589 </v>
   <v>       0.00309179 </v>
   <v>       0.00309179 </v>
   <v>       0.00309179 </v>
   <v>       0.00309179 </v>
   <v>       0.00309179 </v>
   <v>       0.00154589 </v>
   <v>       0.00309179 </v>
   <v>       0.00309179 </v>
   <v>       0.00309179 </v>
   <v>       0.00309179 </v>
   <v>       0.00154589 </v>
   <v>       0.00309179 </v>
   <v>       0.00309179 </v>
   <v>       0.00309179 </v>
   <v>       0.00154589 </v>
   <v>       0.00309179 </v>
   <v>       0.00309179 </v>
   <v>       0.00154589 </v>
   <v>       0.00309179 </v>
   <v>       0.00154589 </v>
   <v>       0.00038647 </v>
   <v>       0.00154589 </v>
   <v>       0.00154589 </v>
   <v>       0.00154589 </v>
   <v>       0.00154589 </v>
   <v>       0.00154589 </v>
   <v>       0.00154589 </v>
   <v>       0.00154589 </v>
   <v>       0.00154589 </v>
   <v>       0.00309179 </v>
   <v>       0.00309179 </v>
   <v>       0.00309179 </v>
   <v>       0.00309179 </v>
   <v>       0.00309179 </v>
   <v>       0.00309179 </v>
   <v>       0.00154589 </v>
   <v>       0.00309179 </v>
   <v>       0.00309179 </v>
   <v>       0.00309179 </v>
   <v>       0.00309179 </v>
   <v>       0.00309179 </v>
   <v>       0.00154589 </v>
   <v>       0.00309179 </v>
   <v>       0.00309179 </v>
   <v>       0.00309179 </v>
   <v>       0.00309179 </v>
   <v>       0.00154589 </v>
   <v>       0.00309179 </v>
   <v>       0.00309179 </v>
   <v>       0.00309179 </v>
   <v>       0.00154589 </v>
   <v>       0.00309179 </v>
   <v>       0.00309179 </v>
   <v>       0.00154589 </v>
   <v>       0.00309179 </v>
   <v>       0.00154589 </v>
   <v>       0.00038647 </v>
   <v>       0.00154589 </v>
   <v>       0.00154589 </v>
   <v>       0.00154589 </v>
   <v>       0.00154589 </v>
   <v>       0.00154589 </v>
   <v>       0.00154589 </v>
   <v>       0.00154589 </v>
   <v>       0.00154589 </v>
   <v>       0.00309179 </v>
   <v>       0.00309179 </v>
   <v>       0.00309179 </v>
   <v>       0.00309179 </v>
   <v>       0.00309179 </v>
   <v>       0.00309179 </v>
   <v>       0.00154589 </v>
   <v>       0.00309179 </v>
   <v>       0.00309179 </v>
   <v>       0.00309179 </v>
   <v>       0.00309179 </v>
   <v>       0.00309179 </v>
   <v>       0.00154589 </v>
   <v>       0.00309179 </v>
   <v>       0.00309179 </v>
   <v>       0.00309179 </v>
   <v>       0.00309179 </v>
   <v>       0.00154589 </v>
   <v>       0.00309179 </v>
   <v>       0.00309179 </v>
   <v>       0.00309179 </v>
   <v>       0.00154589 </v>
   <v>       0.00309179 </v>
   <v>       0.00309179 </v>
   <v>       0.00154589 </v>
   <v>       0.00309179 </v>
   <v>       0.00154589 </v>
   <v>       0.00038647 </v>
   <v>       0.00154589 </v>
   <v>       0.00154589 </v>
   <v>       0.00154589 </v>
   <v>       0.00154589 </v>
   <v>       0.00154589 </v>
   <v>       0.00154589 </v>
   <v>       0.00154589 </v>
   <v>       0.00154589 </v>
   <v>       0.00309179 </v>
   <v>       0.00309179 </v>
   <v>       0.00309179 </v>
   <v>       0.00309179 </v>
   <v>       0.00309179 </v>
   <v>       0.00309179 </v>
   <v>       0.00154589 </v>
   <v>       0.00309179 </v>
   <v>       0.00309179 </v>
   <v>       0.00309179 </v>
   <v>       0.00309179 </v>
   <v>       0.00309179 </v>
   <v>       0.00154589 </v>
   <v>       0.00309179 </v>
   <v>       0.00309179 </v>
   <v>       0.00309179 </v>
   <v>       0.00309179 </v>
   <v>       0.00154589 </v>
   <v>       0.00309179 </v>
   <v>       0.00309179 </v>
   <v>       0.00309179 </v>
   <v>       0.00154589 </v>
   <v>       0.00309179 </v>
   <v>       0.00309179 </v>
   <v>       0.00154589 </v>
   <v>       0.00309179 </v>
   <v>       0.00154589 </v>
   <v>       0.00038647 </v>
   <v>       0.00154589 </v>
   <v>       0.00154589 </v>
   <v>       0.00154589 </v>
   <v>       0.00154589 </v>
   <v>       0.00154589 </v>
   <v>       0.00154589 </v>
   <v>       0.00154589 </v>
   <v>       0.00154589 </v>
   <v>       0.00309179 </v>
   <v>       0.00309179 </v>
   <v>       0.00309179 </v>
   <v>       0.00309179 </v>
   <v>       0.00309179 </v>
   <v>       0.00309179 </v>
   <v>       0.00154589 </v>
   <v>       0.00309179 </v>
   <v>       0.00309179 </v>
   <v>       0.00309179 </v>
   <v>       0.00309179 </v>
   <v>       0.00309179 </v>
   <v>       0.00154589 </v>
   <v>       0.00309179 </v>
   <v>       0.00309179 </v>
   <v>       0.00309179 </v>
   <v>       0.00309179 </v>
   <v>       0.00154589 </v>
   <v>       0.00309179 </v>
   <v>       0.00309179 </v>
   <v>       0.00309179 </v>
   <v>       0.00154589 </v>
   <v>       0.00309179 </v>
   <v>       0.00309179 </v>
   <v>       0.00154589 </v>
   <v>       0.00309179 </v>
   <v>       0.00154589 </v>
   <v>       0.00038647 </v>
   <v>       0.00154589 </v>
   <v>       0.00154589 </v>
   <v>       0.00154589 </v>
   <v>       0.00154589 </v>
   <v>       0.00154589 </v>
   <v>       0.00154589 </v>
   <v>       0.00154589 </v>
   <v>       0.00154589 </v>
   <v>       0.00309179 </v>
   <v>       0.00309179 </v>
   <v>       0.00309179 </v>
   <v>       0.00309179 </v>
   <v>       0.00309179 </v>
   <v>       0.00309179 </v>
   <v>       0.00154589 </v>
   <v>       0.00309179 </v>
   <v>       0.00309179 </v>
   <v>       0.00309179 </v>
   <v>       0.00309179 </v>
   <v>       0.00309179 </v>
   <v>       0.00154589 </v>
   <v>       0.00309179 </v>
   <v>       0.00309179 </v>
   <v>       0.00309179 </v>
   <v>       0.00309179 </v>
   <v>       0.00154589 </v>
   <v>       0.00309179 </v>
   <v>       0.00309179 </v>
   <v>       0.00309179 </v>
   <v>       0.00154589 </v>
   <v>       0.00309179 </v>
   <v>       0.00309179 </v>
   <v>       0.00154589 </v>
   <v>       0.00309179 </v>
   <v>       0.00154589 </v>
   <v>       0.00038647 </v>
   <v>       0.00154589 </v>
   <v>       0.00154589 </v>
   <v>       0.00154589 </v>
   <v>       0.00154589 </v>
   <v>       0.00154589 </v>
   <v>       0.00154589 </v>
   <v>       0.00154589 </v>
   <v>       0.00154589 </v>
   <v>       0.00309179 </v>
   <v>       0.00309179 </v>
   <v>       0.00309179 </v>
   <v>       0.00309179 </v>
   <v>       0.00309179 </v>
   <v>       0.00309179 </v>
   <v>       0.00154589 </v>
   <v>       0.00309179 </v>
   <v>       0.00309179 </v>
   <v>       0.00309179 </v>
   <v>       0.00309179 </v>
   <v>       0.00309179 </v>
   <v>       0.00154589 </v>
   <v>       0.00309179 </v>
   <v>       0.00309179 </v>
   <v>       0.00309179 </v>
   <v>       0.00309179 </v>
   <v>       0.00154589 </v>
   <v>       0.00309179 </v>
   <v>       0.00309179 </v>
   <v>       0.00309179 </v>
   <v>       0.00154589 </v>
   <v>       0.00309179 </v>
   <v>       0.00309179 </v>
   <v>       0.00154589 </v>
   <v>       0.00309179 </v>
   <v>       0.00154589 </v>
  </varray>
 </kpoints>
 <parameters>
  <separator name="general" >
   <i type="string" name="SYSTEM">vaspCalc</i>
   <i type="logical" name="LCOMPAT"> F  </i>
  </separator>
  <separator name="electronic" >
   <i type="string" name="PREC">accura</i>
   <i name="ENMAX">    500.00000000</i>
   <i name="ENAUG">    605.39200000</i>
   <i name="EDIFF">      0.00000001</i>
   <i type="int" name="IALGO">    68</i>
   <i type="int" name="IWAVPR">    10</i>
   <i type="int" name="NBANDS">    20</i>
   <i name="NELECT">     32.00000000</i>
   <i type="int" name="TURBO">     0</i>
   <i type="int" name="IRESTART">     0</i>
   <i type="int" name="NREBOOT">     0</i>
   <i type="int" name="NMIN">     0</i>
   <i name="EREF">      0.00000000</i>
   <separator name="electronic smearing" >
    <i type="int" name="ISMEAR">     0</i>
    <i name="SIGMA">      0.04000000</i>
    <i name="KSPACING">      0.50000000</i>
    <i type="logical" name="KGAMMA"> T  </i>
   </separator>
   <separator name="electronic projectors" >
    <i type="logical" name="LREAL"> F  </i>
    <v name="ROPT">      0.00000000      0.00000000</v>
    <i type="int" name="LMAXPAW">  -100</i>
    <i type="int" name="LMAXMIX">     2</i>
    <i type="logical" name="NLSPLINE"> F  </i>
   </separator>
   <separator name="electronic startup" >
    <i type="int" name="ISTART">     0</i>
    <i type="int" name="ICHARG">     1</i>
    <i type="int" name="INIWAV">     1</i>
   </separator>
   <separator name="electronic spin" >
    <i type="int" name="ISPIN">     1</i>
    <i type="logical" name="LNONCOLLINEAR"> F  </i>
    <v name="MAGMOM">      1.00000000      1.00000000      1.00000000      1.00000000      1.00000000      1.00000000</v>
    <i name="NUPDOWN">     -1.00000000</i>
    <i type="logical" name="LSORBIT"> F  </i>
    <v name="SAXIS">      0.00000000      0.00000000      1.00000000</v>
    <i type="logical" name="LSPIRAL"> F  </i>
    <v name="QSPIRAL">      0.00000000      0.00000000      0.00000000</v>
    <i type="logical" name="LZEROZ"> F  </i>
   </separator>
   <separator name="electronic exchange-correlation" >
    <i type="logical" name="LASPH"> F  </i>
    <i type="logical" name="LMETAGGA"> F  </i>
   </separator>
   <separator name="electronic convergence" >
    <i type="int" name="NELM">   120</i>
    <i type="int" name="NELMDL">    -5</i>
    <i type="int" name="NELMIN">     4</i>
    <i name="ENINI">    500.00000000</i>
    <separator name="electronic convergence detail" >
     <i type="logical" name="LDIAG"> T  </i>
     <i type="logical" name="LSUBROT"> F  </i>
     <i name="WEIMIN">      0.00000000</i>
     <i name="EBREAK">      0.00000000</i>
     <i name="DEPER">      0.30000000</i>
     <i type="int" name="NRMM">     4</i>
     <i name="TIME">      0.40000000</i>
    </separator>
   </separator>
   <separator name="electronic mixer" >
    <i name="AMIX">      0.40000000</i>
    <i name="BMIX">      1.00000000</i>
    <i name="AMIN">      0.10000000</i>
    <i name="AMIX_MAG">      1.60000000</i>
    <i name="BMIX_MAG">      1.00000000</i>
    <separator name="electronic mixer details" >
     <i type="int" name="IMIX">     4</i>
     <i type="logical" name="MIXFIRST"> F  </i>
     <i type="int" name="MAXMIX">   -45</i>
     <i name="WC">    100.00000000</i>
     <i type="int" name="INIMIX">     1</i>
     <i type="int" name="MIXPRE">     1</i>
     <i type="int" name="MREMOVE">     5</i>
    </separator>
   </separator>
   <separator name="electronic dipolcorrection" >
    <i type="logical" name="LDIPOL"> F  </i>
    <i type="logical" name="LMONO"> F  </i>
    <i type="int" name="IDIPOL">     0</i>
    <i name="EPSILON">      1.00000000</i>
    <v name="DIPOL">   -100.00000000   -100.00000000   -100.00000000</v>
    <i name="EFIELD">      0.00000000</i>
   </separator>
  </separator>
  <separator name="grids" >
   <i type="int" name="NGX">    36</i>
   <i type="int" name="NGY">    36</i>
   <i type="int" name="NGZ">    24</i>
   <i type="int" name="NGXF">    72</i>
   <i type="int" name="NGYF">    72</i>
   <i type="int" name="NGZF">    48</i>
   <i type="logical" name="ADDGRID"> F  </i>
  </separator>
  <separator name="ionic" >
   <i type="int" name="NSW">     0</i>
   <i type="int" name="IBRION">    -1</i>
   <i type="int" name="MDALGO">     0</i>
   <i type="int" name="ISIF">     2</i>
   <i name="PSTRESS">      0.00000000</i>
   <i name="EDIFFG">      0.00000010</i>
   <i type="int" name="NFREE">     0</i>
   <i name="POTIM">      0.50000000</i>
   <i name="SMASS">     -3.00000000</i>
   <i name="SCALEE">      1.00000000</i>
  </separator>
  <separator name="ionic md" >
   <i name="TEBEG">      0.00010000</i>
   <i name="TEEND">      0.00010000</i>
   <i type="int" name="NBLOCK">     1</i>
   <i type="int" name="KBLOCK">     1</i>
   <i type="int" name="NPACO">   256</i>
   <i name="APACO">     16.00000000</i>
  </separator>
  <separator name="symmetry" >
   <i type="int" name="ISYM">     2</i>
   <i name="SYMPREC">      0.00001000</i>
  </separator>
  <separator name="dos" >
   <i type="int" name="LORBIT">     0</i>
   <v name="RWIGS">     -1.00000000     -1.00000000</v>
   <i type="int" name="NEDOS">   301</i>
   <i name="EMIN">     10.00000000</i>
   <i name="EMAX">    -10.00000000</i>
   <i name="EFERMI">      0.00000000</i>
  </separator>
  <separator name="writing" >
   <i type="int" name="NWRITE">     1</i>
   <i type="logical" name="LWAVE"> F  </i>
   <i type="logical" name="LDOWNSAMPLE"> F  </i>
   <i type="logical" name="LCHARG"> F  </i>
   <i type="logical" name="LPARD"> F  </i>
   <i type="logical" name="LVTOT"> F  </i>
   <i type="logical" name="LVHAR"> F  </i>
   <i type="logical" name="LELF"> F  </i>
   <i type="logical" name="LOPTICS"> F  </i>
   <v name="STM">      0.00000000      0.00000000      0.00000000      0.00000000      0.00000000      0.00000000      0.00000000</v>
  </separator>
  <separator name="performance" >
   <i type="int" name="NPAR">     4</i>
   <i type="int" name="NSIM">     4</i>
   <i type="int" name="NBLK">    -1</i>
   <i type="logical" name="LPLANE"> T  </i>
   <i type="logical" name="LSCALAPACK"> T  </i>
   <i type="logical" name="LSCAAWARE"> F  </i>
   <i type="logical" name="LSCALU"> F  </i>
   <i type="logical" name="LASYNC"> F  </i>
   <i type="logical" name="LORBITALREAL"> F  </i>
  </separator>
  <separator name="miscellaneous" >
   <i type="int" name="IDIOT">     3</i>
   <i type="int" name="ISPECIAL">     0</i>
   <i type="logical" name="LMUSIC"> F  </i>
   <v name="POMASS">     47.88000000     16.00000000</v>
   <v name="DARWINR">      0.00000000      0.00000000</v>
   <v name="DARWINV">      1.00000000      1.00000000</v>
   <i type="logical" name="LCORR"> T  </i>
  </separator>
  <i type="logical" name="GGA_COMPAT"> T  </i>
  <i type="logical" name="LBERRY"> F  </i>
  <i type="int" name="ICORELEVEL">     0</i>
  <i type="logical" name="LDAU"> F  </i>
  <i type="int" name="I_CONSTRAINED_M">     0</i>
  <separator name="electronic exchange-correlation" >
   <i type="string" name="GGA">PE</i>
   <i type="int" name="VOSKOWN">     0</i>
   <i type="logical" name="LHFCALC"> F  </i>
   <i type="string" name="PRECFOCK"></i>
   <i type="logical" name="LSYMGRAD"> F  </i>
   <i type="logical" name="LHFONE"> F  </i>
   <i type="logical" name="LRHFCALC"> F  </i>
   <i type="logical" name="LTHOMAS"> F  </i>
   <i type="logical" name="LMODELHF"> F  </i>
   <i name="ENCUT4O">     -1.00000000</i>
   <i type="int" name="EXXOEP">     0</i>
   <i type="int" name="FOURORBIT">     0</i>
   <i name="AEXX">      0.00000000</i>
   <i name="HFALPHA">      0.00000000</i>
   <i name="MCALPHA">      0.00000000</i>
   <i name="ALDAX">      1.00000000</i>
   <i name="AGGAX">      1.00000000</i>
   <i name="ALDAC">      1.00000000</i>
   <i name="AGGAC">      1.00000000</i>
   <i type="int" name="NKREDX">     1</i>
   <i type="int" name="NKREDY">     1</i>
   <i type="int" name="NKREDZ">     1</i>
   <i type="logical" name="SHIFTRED"> F  </i>
   <i type="logical" name="ODDONLY"> F  </i>
   <i type="logical" name="EVENONLY"> F  </i>
   <i type="int" name="LMAXFOCK">     0</i>
   <i type="int" name="NMAXFOCKAE">     0</i>
   <i type="logical" name="LFOCKAEDFT"> F  </i>
   <i name="HFSCREEN">      0.00000000</i>
   <i name="HFSCREENC">      0.00000000</i>
   <i type="int" name="NBANDSGWLOW">     0</i>
  </separator>
  <separator name="vdW DFT" >
   <i type="logical" name="LUSE_VDW"> F  </i>
   <i name="Zab_VDW">     -0.84910000</i>
   <i name="PARAM1">      0.12340000</i>
   <i name="PARAM2">      1.00000000</i>
   <i name="PARAM3">      0.00000000</i>
  </separator>
  <separator name="model GW" >
   <i type="int" name="MODEL_GW">     0</i>
   <i name="MODEL_EPS0">      6.45188345</i>
   <i name="MODEL_ALPHA">      1.00000000</i>
  </separator>
  <separator name="linear response parameters" >
   <i type="logical" name="LEPSILON"> F  </i>
   <i type="logical" name="LRPA"> F  </i>
   <i type="logical" name="LNABLA"> F  </i>
   <i type="logical" name="LVEL"> F  </i>
   <i type="int" name="KINTER">     0</i>
   <i name="CSHIFT">      0.10000000</i>
   <i name="OMEGAMAX">     -1.00000000</i>
   <i name="DEG_THRESHOLD">      0.00200000</i>
   <i name="RTIME">     -0.10000000</i>
   <i name="WPLASMAI">      0.00000000</i>
   <v name="DFIELD">      0.00000000      0.00000000      0.00000000</v>
   <v name="WPLASMA">      0.00000000      0.00000000      0.00000000      0.00000000      0.00000000      0.00000000      0.00000000      0.00000000      0.00000000</v>
  </separator>
  <separator name="orbital magnetization" >
   <i type="logical" name="NUCIND"> F  </i>
   <v name="MAGPOS">      0.00000000      0.00000000      0.00000000</v>
   <i type="logical" name="LNICSALL"> T  </i>
   <i type="logical" name="ORBITALMAG"> F  </i>
   <i type="logical" name="LMAGBLOCH"> F  </i>
   <i type="logical" name="LCHIMAG"> F  </i>
   <i type="logical" name="LGAUGE"> T  </i>
   <i type="int" name="MAGATOM">     0</i>
   <v name="MAGDIPOL">      0.00000000      0.00000000      0.00000000</v>
   <v name="AVECCONST">      0.00000000      0.00000000      0.00000000</v>
  </separator>
  <separator name="response functions" >
   <i type="logical" name="LADDER"> F  </i>
   <i type="logical" name="LRPAFORCE"> F  </i>
   <i type="logical" name="LFXC"> F  </i>
   <i type="logical" name="LHARTREE"> T  </i>
   <i type="int" name="IBSE">     0</i>
   <v type="int" name="KPOINT">    -1     0     0     0</v>
   <i type="logical" name="LTCTE"> F  </i>
   <i type="logical" name="LTETE"> F  </i>
   <i type="logical" name="LTRIPLET"> F  </i>
   <i type="logical" name="LFXCEPS"> F  </i>
   <i type="logical" name="LFXHEG"> F  </i>
   <i type="int" name="NATURALO">     2</i>
   <i type="logical" name="L2ORDER"> F  </i>
   <i type="logical" name="LMP2LT"> F  </i>
   <i type="logical" name="LUSEW"> F  </i>
   <i name="ENCUTGW">     -2.00000000</i>
   <i name="ENCUTGWSOFT">     -2.00000000</i>
   <i name="ENCUTLF">     -1.00000000</i>
   <i type="int" name="LMAXMP2">    -1</i>
   <i name="SCISSOR">      0.00000000</i>
   <i type="int" name="NOMEGA">     0</i>
   <i type="int" name="NOMEGAR">     0</i>
   <i type="int" name="NBANDSGW">    -1</i>
   <i type="int" name="NBANDSO">    -1</i>
   <i type="int" name="NBANDSV">    -1</i>
   <i type="int" name="NELM">   120</i>
   <i type="int" name="NELMHF">     1</i>
   <i type="int" name="DIM">     3</i>
   <i type="int" name="ANTIRES">     0</i>
   <i name="OMEGAMAX">    -30.00000000</i>
   <i name="OMEGAMIN">    -30.00000000</i>
   <i name="OMEGATL">   -200.00000000</i>
   <i type="int" name="OMEGAGRID">   140</i>
   <i name="CSHIFT">     -0.10000000</i>
   <i type="logical" name="SELFENERGY"> F  </i>
   <i type="logical" name="LSPECTRAL"> F  </i>
   <i type="logical" name="LSPECTRALGW"> F  </i>
   <i type="logical" name="LSINGLES"> F  </i>
   <i type="logical" name="LFERMIGW"> F  </i>
   <i type="logical" name="ODDONLYGW"> F  </i>
   <i type="logical" name="EVENONLYGW"> F  </i>
   <i type="int" name="NKREDLFX">     1</i>
   <i type="int" name="NKREDLFY">     1</i>
   <i type="int" name="NKREDLFZ">     1</i>
   <i type="int" name="MAXMEM">  2800</i>
   <i type="int" name="TELESCOPE">     0</i>
   <i type="int" name="TAUPAR">     1</i>
   <i type="int" name="OMEGAPAR">    -1</i>
   <i name="LAMBDA">      1.00000000</i>
  </separator>
  <separator name="External order field" >
   <i name="OFIELD_KAPPA">      0.00000000</i>
   <v name="OFIELD_K">      0.00000000      0.00000000      0.00000000</v>
   <i name="OFIELD_Q6_NEAR">      0.00000000</i>
   <i name="OFIELD_Q6_FAR">      0.00000000</i>
   <i name="OFIELD_A">      0.00000000</i>
  </separator>
 </parameters>
 <atominfo>
  <atoms>       6 </atoms>
  <types>       2 </types>
  <array name="atoms" >
   <dimension dim="1">ion</dimension>
   <field type="string">element</field>
   <field type="int">atomtype</field>
   <set>
    <rc><c>Ti</c><c>   1</c></rc>
    <rc><c>Ti</c><c>   1</c></rc>
    <rc><c>O </c><c>   2</c></rc>
    <rc><c>O </c><c>   2</c></rc>
    <rc><c>O </c><c>   2</c></rc>
    <rc><c>O </c><c>   2</c></rc>
   </set>
  </array>
  <array name="atomtypes" >
   <dimension dim="1">type</dimension>
   <field type="int">atomspertype</field>
   <field type="string">element</field>
   <field>mass</field>
   <field>valence</field>
   <field type="string">pseudopotential</field>
   <set>
    <rc><c>   2</c><c>Ti</c><c>     47.88000000</c><c>      4.00000000</c><c>  PAW_PBE Ti 08Apr2002                  </c></rc>
    <rc><c>   4</c><c>O </c><c>     16.00000000</c><c>      6.00000000</c><c>  PAW_PBE O 08Apr2002                   </c></rc>
   </set>
  </array>
 </atominfo>
 <structure name="initialpos" >
  <crystal>
   <varray name="basis" >
    <v>       4.66178986       0.00000000       0.00000000 </v>
    <v>       0.00000000       4.66178986       0.00000000 </v>
    <v>       0.00000000       0.00000000       2.96880128 </v>
   </varray>
   <i name="volume">     64.51883454 </i>
   <varray name="rec_basis" >
    <v>       0.21450988       0.00000000       0.00000000 </v>
    <v>       0.00000000       0.21450988       0.00000000 </v>
    <v>       0.00000000       0.00000000       0.33683629 </v>
   </varray>
  </crystal>
  <varray name="positions" >
   <v>       0.00000000       0.00000000       0.00000000 </v>
   <v>       0.50000000       0.50000000       0.50000000 </v>
   <v>       0.19532460       0.80467540       0.50000000 </v>
   <v>       0.80467540       0.19532460       0.50000000 </v>
   <v>       0.69532460       0.69532460       0.00000000 </v>
   <v>       0.30467540       0.30467540       0.00000000 </v>
  </varray>
 </structure>
 <calculation>
  <scstep>
   <time name="dav">    2.17    2.18</time>
   <time name="total">    2.19    2.20</time>
   <energy>
    <i name="alphaZ">    133.34338423 </i>
    <i name="ewald">  -1561.12849344 </i>
    <i name="hartreedc">   -447.16640732 </i>
    <i name="XCdc">     36.02387905 </i>
    <i name="pawpsdc">   1637.22947824 </i>
    <i name="pawaedc">  -1563.49591269 </i>
    <i name="eentropy">     -0.00219345 </i>
    <i name="bandstr">    220.59109645 </i>
    <i name="atom">   1919.01102819 </i>
    <i name="e_fr_energy">    374.40585927 </i>
    <i name="e_wo_entrp">    374.40805272 </i>
    <i name="e_0_energy">    374.40695600 </i>
   </energy>
  </scstep>
  <scstep>
   <time name="dav">    2.61    2.62</time>
   <time name="total">    2.61    2.62</time>
   <energy>
    <i name="e_fr_energy">      2.66172523 </i>
    <i name="e_wo_entrp">      2.66314523 </i>
    <i name="e_0_energy">      2.66243523 </i>
   </energy>
  </scstep>
  <scstep>
   <time name="dav">    2.57    2.57</time>
   <time name="total">    2.57    2.57</time>
   <energy>
    <i name="e_fr_energy">    -68.10121433 </i>
    <i name="e_wo_entrp">    -68.10121433 </i>
    <i name="e_0_energy">    -68.10121433 </i>
   </energy>
  </scstep>
  <scstep>
   <time name="dav">    2.43    2.44</time>
   <time name="total">    2.43    2.44</time>
   <energy>
    <i name="e_fr_energy">    -71.02478234 </i>
    <i name="e_wo_entrp">    -71.02478234 </i>
    <i name="e_0_energy">    -71.02478234 </i>
   </energy>
  </scstep>
  <scstep>
   <time name="dav">    2.43    2.44</time>
   <time name="total">    2.51    2.52</time>
   <energy>
    <i name="e_fr_energy">    -71.10819368 </i>
    <i name="e_wo_entrp">    -71.10819368 </i>
    <i name="e_0_energy">    -71.10819368 </i>
   </energy>
  </scstep>
  <scstep>
   <time name="diag">    0.71    0.72</time>
   <time name="diis">    0.82    0.82</time>
   <time name="orth">    0.06    0.06</time>
   <time name="total">    1.67    1.68</time>
   <energy>
    <i name="e_fr_energy">    -54.69769540 </i>
    <i name="e_wo_entrp">    -54.69769540 </i>
    <i name="e_0_energy">    -54.69769540 </i>
   </energy>
  </scstep>
  <scstep>
   <time name="diag">    0.73    0.73</time>
   <time name="diis">    0.79    0.79</time>
   <time name="orth">    0.05    0.05</time>
   <time name="total">    1.66    1.67</time>
   <energy>
    <i name="e_fr_energy">    -53.06948868 </i>
    <i name="e_wo_entrp">    -53.06948868 </i>
    <i name="e_0_energy">    -53.06948868 </i>
   </energy>
  </scstep>
  <scstep>
   <time name="diag">    0.71    0.71</time>
   <time name="diis">    0.79    0.79</time>
   <time name="orth">    0.05    0.05</time>
   <time name="total">    1.64    1.64</time>
   <energy>
    <i name="e_fr_energy">    -52.88728891 </i>
    <i name="e_wo_entrp">    -52.88728891 </i>
    <i name="e_0_energy">    -52.88728891 </i>
   </energy>
  </scstep>
  <scstep>
   <time name="diag">    0.71    0.71</time>
   <time name="diis">    0.84    0.85</time>
   <time name="orth">    0.05    0.05</time>
   <time name="total">    1.70    1.70</time>
   <energy>
    <i name="e_fr_energy">    -52.82851288 </i>
    <i name="e_wo_entrp">    -52.82851288 </i>
    <i name="e_0_energy">    -52.82851288 </i>
   </energy>
  </scstep>
  <scstep>
   <time name="diag">    0.71    0.71</time>
   <time name="diis">    0.94    0.95</time>
   <time name="orth">    0.05    0.05</time>
   <time name="total">    1.79    1.80</time>
   <energy>
    <i name="e_fr_energy">    -52.84045611 </i>
    <i name="e_wo_entrp">    -52.84045611 </i>
    <i name="e_0_energy">    -52.84045611 </i>
   </energy>
  </scstep>
  <scstep>
   <time name="diag">    0.71    0.71</time>
   <time name="diis">    0.90    0.90</time>
   <time name="orth">    0.05    0.05</time>
   <time name="total">    1.75    1.75</time>
   <energy>
    <i name="e_fr_energy">    -52.81989981 </i>
    <i name="e_wo_entrp">    -52.81989981 </i>
    <i name="e_0_energy">    -52.81989981 </i>
   </energy>
  </scstep>
  <scstep>
   <time name="diag">    0.71    0.71</time>
   <time name="diis">    0.96    0.96</time>
   <time name="orth">    0.05    0.05</time>
   <time name="total">    1.82    1.82</time>
   <energy>
    <i name="e_fr_energy">    -52.81969526 </i>
    <i name="e_wo_entrp">    -52.81969526 </i>
    <i name="e_0_energy">    -52.81969526 </i>
   </energy>
  </scstep>
  <scstep>
   <time name="diag">    0.72    0.73</time>
   <time name="diis">    0.93    0.94</time>
   <time name="orth">    0.05    0.06</time>
   <time name="total">    1.80    1.81</time>
   <energy>
    <i name="e_fr_energy">    -52.81976931 </i>
    <i name="e_wo_entrp">    -52.81976931 </i>
    <i name="e_0_energy">    -52.81976931 </i>
   </energy>
  </scstep>
  <scstep>
   <time name="diag">    0.72    0.72</time>
   <time name="diis">    0.93    0.93</time>
   <time name="orth">    0.05    0.05</time>
   <time name="total">    1.79    1.79</time>
   <energy>
    <i name="e_fr_energy">    -52.81956733 </i>
    <i name="e_wo_entrp">    -52.81956733 </i>
    <i name="e_0_energy">    -52.81956733 </i>
   </energy>
  </scstep>
  <scstep>
   <time name="diag">    0.71    0.71</time>
   <time name="diis">    0.96    0.96</time>
   <time name="orth">    0.05    0.05</time>
   <time name="total">    1.81    1.81</time>
   <energy>
    <i name="e_fr_energy">    -52.81957555 </i>
    <i name="e_wo_entrp">    -52.81957555 </i>
    <i name="e_0_energy">    -52.81957555 </i>
   </energy>
  </scstep>
  <scstep>
   <time name="diag">    0.71    0.71</time>
   <time name="diis">    0.96    0.96</time>
   <time name="orth">    0.05    0.05</time>
   <time name="total">    1.81    1.82</time>
   <energy>
    <i name="e_fr_energy">    -52.81956925 </i>
    <i name="e_wo_entrp">    -52.81956925 </i>
    <i name="e_0_energy">    -52.81956925 </i>
   </energy>
  </scstep>
  <scstep>
   <time name="diag">    0.71    0.71</time>
   <time name="diis">    0.97    0.97</time>
   <time name="orth">    0.05    0.05</time>
   <time name="total">    1.82    1.82</time>
   <energy>
    <i name="e_fr_energy">    -52.81956920 </i>
    <i name="e_wo_entrp">    -52.81956920 </i>
    <i name="e_0_energy">    -52.81956920 </i>
   </energy>
  </scstep>
  <scstep>
   <time name="diag">    0.71    0.71</time>
   <time name="diis">    0.95    0.95</time>
   <time name="orth">    0.05    0.05</time>
   <time name="total">    1.80    1.80</time>
   <energy>
    <i name="e_fr_energy">    -52.81956923 </i>
    <i name="e_wo_entrp">    -52.81956923 </i>
    <i name="e_0_energy">    -52.81956923 </i>
   </energy>
  </scstep>
  <scstep>
   <time name="diag">    0.71    0.71</time>
   <time name="diis">    0.87    0.87</time>
   <time name="orth">    0.05    0.05</time>
   <time name="total">    1.72    1.72</time>
   <energy>
    <i name="e_fr_energy">    -52.81956928 </i>
    <i name="e_wo_entrp">    -52.81956928 </i>
    <i name="e_0_energy">    -52.81956928 </i>
   </energy>
  </scstep>
  <scstep>
   <time name="diag">    0.71    0.71</time>
   <time name="diis">    0.92    0.92</time>
   <time name="orth">    0.05    0.05</time>
   <time name="total">    1.77    1.78</time>
   <energy>
    <i name="e_fr_energy">    -52.81956925 </i>
    <i name="e_wo_entrp">    -52.81956925 </i>
    <i name="e_0_energy">    -52.81956925 </i>
   </energy>
  </scstep>
  <scstep>
   <time name="diag">    0.71    0.71</time>
   <time name="diis">    0.68    0.68</time>
   <time name="orth">    0.05    0.05</time>
   <time name="total">    1.46    1.46</time>
   <energy>
    <i name="alphaZ">    133.34338423 </i>
    <i name="ewald">  -1561.12849344 </i>
    <i name="hartreedc">   -507.83323062 </i>
    <i name="XCdc">     42.38304727 </i>
    <i name="pawpsdc">   2934.76554666 </i>
    <i name="pawaedc">  -2862.07236131 </i>
    <i name="eentropy">     -0.00000000 </i>
    <i name="bandstr">   -151.28849024 </i>
    <i name="atom">   1919.01102819 </i>
    <i name="e_fr_energy">    -52.81956925 </i>
    <i name="e_wo_entrp">    -52.81956925 </i>
    <i name="e_0_energy">    -52.81956925 </i>
   </energy>
  </scstep>
  <structure>
   <crystal>
    <varray name="basis" >
     <v>       4.66178986       0.00000000       0.00000000 </v>
     <v>       0.00000000       4.66178986       0.00000000 </v>
     <v>       0.00000000       0.00000000       2.96880128 </v>
    </varray>
    <i name="volume">     64.51883454 </i>
    <varray name="rec_basis" >
     <v>       0.21450988       0.00000000       0.00000000 </v>
     <v>       0.00000000       0.21450988       0.00000000 </v>
     <v>       0.00000000       0.00000000       0.33683629 </v>
    </varray>
   </crystal>
   <varray name="positions" >
    <v>       0.00000000       0.00000000       0.00000000 </v>
    <v>       0.50000000       0.50000000       0.50000000 </v>
    <v>       0.19532460       0.80467540       0.50000000 </v>
    <v>       0.80467540       0.19532460       0.50000000 </v>
    <v>       0.69532460       0.69532460       0.00000000 </v>
    <v>       0.30467540       0.30467540       0.00000000 </v>
   </varray>
  </structure>
  <varray name="forces" >
   <v>      -0.00000000      -0.00000000       0.00000000 </v>
   <v>      -0.00000000      -0.00000000       0.00000000 </v>
   <v>      -0.00003755       0.00003755       0.00000000 </v>
   <v>       0.00003755      -0.00003755       0.00000000 </v>
   <v>      -0.00003755      -0.00003755       0.00000000 </v>
   <v>       0.00003755       0.00003755       0.00000000 </v>
  </varray>
  <varray name="stress" >
   <v>      -0.00498633       0.00000000       0.00000000 </v>
   <v>      -0.00000000      -0.00498633       0.00000000 </v>
   <v>       0.00000000       0.00000000       0.03914446 </v>
  </varray>
  <energy>
   <i name="e_fr_energy">    -52.81956925 </i>
   <i name="e_wo_entrp">    -52.81956925 </i>
   <i name="e_0_energy">     -0.00000000 </i>
  </energy>
  <time name="totalsc">   40.91   41.02</time>
  <eigenvalues>
   <array>
    <dimension dim="1">band</dimension>
    <dimension dim="2">kpoint</dimension>
    <dimension dim="3">spin</dimension>
    <field>eigene</field>
    <field>occ</field>
    <set>
     <set comment="spin 1">
      <set comment="kpoint 1">
       <r>  -16.4543    1.0000 </r>
       <r>  -15.3168    1.0000 </r>
       <r>  -14.7954    1.0000 </r>
       <r>  -14.7954    1.0000 </r>
       <r>   -4.0033    1.0000 </r>
       <r>   -3.5690    1.0000 </r>
       <r>   -3.0774    1.0000 </r>
       <r>   -2.0820    1.0000 </r>
       <r>   -2.0820    1.0000 </r>
       <r>   -0.8921    1.0000 </r>
       <r>   -0.8921    1.0000 </r>
       <r>   -0.2556    1.0000 </r>
       <r>    0.9849    1.0000 </r>
       <r>    1.2187    1.0000 </r>
       <r>    1.2187    1.0000 </r>
       <r>    1.5859    1.0000 </r>
       <r>    3.2330    0.0000 </r>
       <r>    3.5118    0.0000 </r>
       <r>    3.7819    0.0000 </r>
       <r>    3.8417    0.0000 </r>
      </set>
      <set comment="kpoint 2">
       <r>  -16.4407    1.0000 </r>
       <r>  -15.3201    1.0000 </r>
       <r>  -14.8077    1.0000 </r>
       <r>  -14.7991    1.0000 </r>
       <r>   -3.9746    1.0000 </r>
       <r>   -3.5521    1.0000 </r>
       <r>   -3.0508    1.0000 </r>
       <r>   -2.0803    1.0000 </r>
       <r>   -2.0789    1.0000 </r>
       <r>   -0.9197    1.0000 </r>
       <r>   -0.8980    1.0000 </r>
       <r>   -0.2539    1.0000 </r>
       <r>    0.9549    1.0000 </r>
       <r>    1.1270    1.0000 </r>
       <r>    1.1744    1.0000 </r>
       <r>    1.5775    1.0000 </r>
       <r>    3.2597    0.0000 </r>
       <r>    3.5508    0.0000 </r>
       <r>    3.8180    0.0000 </r>
       <r>    3.8623    0.0000 </r>
      </set>
      <set comment="kpoint 3">
       <r>  -16.4009    1.0000 </r>
       <r>  -15.3327    1.0000 </r>
       <r>  -14.8413    1.0000 </r>
       <r>  -14.8098    1.0000 </r>
       <r>   -3.8924    1.0000 </r>
       <r>   -3.5033    1.0000 </r>
       <r>   -2.9698    1.0000 </r>
       <r>   -2.0752    1.0000 </r>
       <r>   -2.0702    1.0000 </r>
       <r>   -0.9970    1.0000 </r>
       <r>   -0.9187    1.0000 </r>
       <r>   -0.2473    1.0000 </r>
       <r>    0.8702    1.0000 </r>
       <r>    0.8845    1.0000 </r>
       <r>    1.0629    1.0000 </r>
       <r>    1.5387    1.0000 </r>
       <r>    3.3320    0.0000 </r>
       <r>    3.6474    0.0000 </r>
       <r>    3.9102    0.0000 </r>
       <r>    3.9112    0.0000 </r>
      </set>
      <set comment="kpoint 4">
       <r>  -16.3360    1.0000 </r>
       <r>  -15.3613    1.0000 </r>
       <r>  -14.8860    1.0000 </r>
       <r>  -14.8271    1.0000 </r>
       <r>   -3.7678    1.0000 </r>
       <r>   -3.4281    1.0000 </r>
       <r>   -2.8306    1.0000 </r>
       <r>   -2.0673    1.0000 </r>
       <r>   -2.0579    1.0000 </r>
       <r>   -1.1098    1.0000 </r>
       <r>   -0.9627    1.0000 </r>
       <r>   -0.2321    1.0000 </r>
       <r>    0.5405    1.0000 </r>
       <r>    0.7447    1.0000 </r>
       <r>    0.9316    1.0000 </r>
       <r>    1.4619    1.0000 </r>
       <r>    3.4332    0.0000 </r>
       <r>    3.7591    0.0000 </r>
       <r>    3.9892    0.0000 </r>
       <r>    4.0475    0.0000 </r>
      </set>
      <set comment="kpoint 5">
       <r>  -16.2481    1.0000 </r>
       <r>  -15.4154    1.0000 </r>
       <r>  -14.9267    1.0000 </r>
       <r>  -14.8493    1.0000 </r>
       <r>   -3.6181    1.0000 </r>
       <r>   -3.3375    1.0000 </r>
       <r>   -2.6285    1.0000 </r>
       <r>   -2.0573    1.0000 </r>
       <r>   -2.0447    1.0000 </r>
       <r>   -1.2374    1.0000 </r>
       <r>   -1.0386    1.0000 </r>
       <r>   -0.2028    1.0000 </r>
       <r>    0.1327    1.0000 </r>
       <r>    0.5948    1.0000 </r>
       <r>    0.8268    1.0000 </r>
       <r>    1.3544    1.0000 </r>
       <r>    3.5465    0.0000 </r>
       <r>    3.8504    0.0000 </r>
       <r>    4.0793    0.0000 </r>
       <r>    4.1878    0.0000 </r>
      </set>
      <set comment="kpoint 6">
       <r>  -16.1400    1.0000 </r>
       <r>  -15.5010    1.0000 </r>
       <r>  -14.9509    1.0000 </r>
       <r>  -14.8747    1.0000 </r>
       <r>   -3.4635    1.0000 </r>
       <r>   -3.2484    1.0000 </r>
       <r>   -2.3612    1.0000 </r>
       <r>   -2.0464    1.0000 </r>
       <r>   -2.0333    1.0000 </r>
       <r>   -1.3543    1.0000 </r>
       <r>   -1.1458    1.0000 </r>
       <r>   -0.3094    1.0000 </r>
       <r>   -0.1541    1.0000 </r>
       <r>    0.4359    1.0000 </r>
       <r>    0.7778    1.0000 </r>
       <r>    1.2273    1.0000 </r>
       <r>    3.6584    0.0000 </r>
       <r>    3.9043    0.0000 </r>
       <r>    4.1789    0.0000 </r>
       <r>    4.3843    0.0000 </r>
      </set>
      <set comment="kpoint 7">
       <r>  -16.0164    1.0000 </r>
       <r>  -15.6146    1.0000 </r>
       <r>  -14.9557    1.0000 </r>
       <r>  -14.9012    1.0000 </r>
       <r>   -3.3243    1.0000 </r>
       <r>   -3.1849    1.0000 </r>
       <r>   -2.0361    1.0000 </r>
       <r>   -2.0329    1.0000 </r>
       <r>   -2.0262    1.0000 </r>
       <r>   -1.4334    1.0000 </r>
       <r>   -1.2664    1.0000 </r>
       <r>   -0.7618    1.0000 </r>
       <r>   -0.0817    1.0000 </r>
       <r>    0.2804    1.0000 </r>
       <r>    0.7918    1.0000 </r>
       <r>    1.0930    1.0000 </r>
       <r>    3.7585    0.0000 </r>
       <r>    3.9177    0.0000 </r>
       <r>    4.2798    0.0000 </r>
       <r>    4.5544    0.0000 </r>
      </set>
      <set comment="kpoint 8">
       <r>  -15.8825    1.0000 </r>
       <r>  -15.7454    1.0000 </r>
       <r>  -14.9456    1.0000 </r>
       <r>  -14.9259    1.0000 </r>
       <r>   -3.2208    1.0000 </r>
       <r>   -3.1718    1.0000 </r>
       <r>   -2.0283    1.0000 </r>
       <r>   -2.0246    1.0000 </r>
       <r>   -1.6608    1.0000 </r>
       <r>   -1.4599    1.0000 </r>
       <r>   -1.3614    1.0000 </r>
       <r>   -1.1957    1.0000 </r>
       <r>    0.0161    1.0000 </r>
       <r>    0.1381    1.0000 </r>
       <r>    0.8595    1.0000 </r>
       <r>    0.9654    1.0000 </r>
       <r>    3.8392    0.0000 </r>
       <r>    3.8942    0.0000 </r>
       <r>    4.3066    0.0000 </r>
       <r>    4.3293    0.0000 </r>
      </set>
      <set comment="kpoint 9">
       <r>  -16.4275    1.0000 </r>
       <r>  -15.3240    1.0000 </r>
       <r>  -14.8211    1.0000 </r>
       <r>  -14.8008    1.0000 </r>
       <r>   -3.9513    1.0000 </r>
       <r>   -3.5314    1.0000 </r>
       <r>   -3.0247    1.0000 </r>
       <r>   -2.0847    1.0000 </r>
       <r>   -2.0702    1.0000 </r>
       <r>   -0.9656    1.0000 </r>
       <r>   -0.8835    1.0000 </r>
       <r>   -0.2519    1.0000 </r>
       <r>    0.9277    1.0000 </r>
       <r>    1.0313    1.0000 </r>
       <r>    1.1459    1.0000 </r>
       <r>    1.5711    1.0000 </r>
       <r>    3.2693    0.0000 </r>
       <r>    3.5937    0.0000 </r>
       <r>    3.8494    0.0000 </r>
       <r>    3.8634    0.0000 </r>
      </set>
      <set comment="kpoint 10">
       <r>  -16.3885    1.0000 </r>
       <r>  -15.3374    1.0000 </r>
       <r>  -14.8534    1.0000 </r>
       <r>  -14.8102    1.0000 </r>
       <r>   -3.8848    1.0000 </r>
       <r>   -3.4721    1.0000 </r>
       <r>   -2.9452    1.0000 </r>
       <r>   -2.0848    1.0000 </r>
       <r>   -2.0580    1.0000 </r>
       <r>   -1.0539    1.0000 </r>
       <r>   -0.8872    1.0000 </r>
       <r>   -0.2444    1.0000 </r>
       <r>    0.8080    1.0000 </r>
       <r>    0.8505    1.0000 </r>
       <r>    1.0424    1.0000 </r>
       <r>    1.5349    1.0000 </r>
       <r>    3.3124    0.0000 </r>
       <r>    3.6909    0.0000 </r>
       <r>    3.8649    0.0000 </r>
       <r>    3.9430    0.0000 </r>
      </set>
      <set comment="kpoint 11">
       <r>  -16.3249    1.0000 </r>
       <r>  -15.3670    1.0000 </r>
       <r>  -14.8949    1.0000 </r>
       <r>  -14.8269    1.0000 </r>
       <r>   -3.7834    1.0000 </r>
       <r>   -3.3836    1.0000 </r>
       <r>   -2.8082    1.0000 </r>
       <r>   -2.0803    1.0000 </r>
       <r>   -2.0449    1.0000 </r>
       <r>   -1.1669    1.0000 </r>
       <r>   -0.9203    1.0000 </r>
       <r>   -0.2275    1.0000 </r>
       <r>    0.4991    1.0000 </r>
       <r>    0.7344    1.0000 </r>
       <r>    0.9067    1.0000 </r>
       <r>    1.4572    1.0000 </r>
       <r>    3.3955    0.0000 </r>
       <r>    3.7937    0.0000 </r>
       <r>    3.9229    0.0000 </r>
       <r>    4.0785    0.0000 </r>
      </set>
      <set comment="kpoint 12">
       <r>  -16.2387    1.0000 </r>
       <r>  -15.4219    1.0000 </r>
       <r>  -14.9319    1.0000 </r>
       <r>  -14.8488    1.0000 </r>
       <r>   -3.6583    1.0000 </r>
       <r>   -3.2849    1.0000 </r>
       <r>   -2.6095    1.0000 </r>
       <r>   -2.0717    1.0000 </r>
       <r>   -2.0334    1.0000 </r>
       <r>   -1.2827    1.0000 </r>
       <r>   -0.9926    1.0000 </r>
       <r>   -0.1960    1.0000 </r>
       <r>    0.1291    1.0000 </r>
       <r>    0.5936    1.0000 </r>
       <r>    0.7938    1.0000 </r>
       <r>    1.3455    1.0000 </r>
       <r>    3.5038    0.0000 </r>
       <r>    3.8719    0.0000 </r>
       <r>    4.0473    0.0000 </r>
       <r>    4.2403    0.0000 </r>
      </set>
      <set comment="kpoint 13">
       <r>  -16.1328    1.0000 </r>
       <r>  -15.5072    1.0000 </r>
       <r>  -14.9529    1.0000 </r>
       <r>  -14.8740    1.0000 </r>
       <r>   -3.5211    1.0000 </r>
       <r>   -3.2023    1.0000 </r>
       <r>   -2.3490    1.0000 </r>
       <r>   -2.0603    1.0000 </r>
       <r>   -2.0259    1.0000 </r>
       <r>   -1.3708    1.0000 </r>
       <r>   -1.1091    1.0000 </r>
       <r>   -0.2772    1.0000 </r>
       <r>   -0.1446    1.0000 </r>
       <r>    0.4419    1.0000 </r>
       <r>    0.7397    1.0000 </r>
       <r>    1.2125    1.0000 </r>
       <r>    3.6186    0.0000 </r>
       <r>    3.9125    0.0000 </r>
       <r>    4.1268    0.0000 </r>
       <r>    4.4032    0.0000 </r>
      </set>
      <set comment="kpoint 14">
       <r>  -16.0119    1.0000 </r>
       <r>  -15.6188    1.0000 </r>
       <r>  -14.9560    1.0000 </r>
       <r>  -14.9003    1.0000 </r>
       <r>   -3.3849    1.0000 </r>
       <r>   -3.1636    1.0000 </r>
       <r>   -2.0477    1.0000 </r>
       <r>   -2.0384    1.0000 </r>
       <r>   -2.0239    1.0000 </r>
       <r>   -1.3950    1.0000 </r>
       <r>   -1.2630    1.0000 </r>
       <r>   -0.6913    1.0000 </r>
       <r>   -0.0699    1.0000 </r>
       <r>    0.2912    1.0000 </r>
       <r>    0.7538    1.0000 </r>
       <r>    1.0716    1.0000 </r>
       <r>    3.7257    0.0000 </r>
       <r>    3.9140    0.0000 </r>
       <r>    4.2174    0.0000 </r>
       <r>    4.5623    0.0000 </r>
      </set>
      <set comment="kpoint 15">
       <r>  -15.8808    1.0000 </r>
       <r>  -15.7469    1.0000 </r>
       <r>  -14.9449    1.0000 </r>
       <r>  -14.9250    1.0000 </r>
       <r>   -3.2662    1.0000 </r>
       <r>   -3.1861    1.0000 </r>
       <r>   -2.0362    1.0000 </r>
       <r>   -2.0276    1.0000 </r>
       <r>   -1.7129    1.0000 </r>
       <r>   -1.4507    1.0000 </r>
       <r>   -1.3131    1.0000 </r>
       <r>   -1.0677    1.0000 </r>
       <r>    0.0294    1.0000 </r>
       <r>    0.1513    1.0000 </r>
       <r>    0.8255    1.0000 </r>
       <r>    0.9373    1.0000 </r>
       <r>    3.8152    0.0000 </r>
       <r>    3.8798    0.0000 </r>
       <r>    4.2750    0.0000 </r>
       <r>    4.3283    0.0000 </r>
      </set>
      <set comment="kpoint 16">
       <r>  -16.3519    1.0000 </r>
       <r>  -15.3533    1.0000 </r>
       <r>  -14.8821    1.0000 </r>
       <r>  -14.8163    1.0000 </r>
       <r>   -3.8578    1.0000 </r>
       <r>   -3.3895    1.0000 </r>
       <r>   -2.8701    1.0000 </r>
       <r>   -2.0922    1.0000 </r>
       <r>   -2.0434    1.0000 </r>
       <r>   -1.1562    1.0000 </r>
       <r>   -0.8570    1.0000 </r>
       <r>   -0.2340    1.0000 </r>
       <r>    0.6240    1.0000 </r>
       <r>    0.7931    1.0000 </r>
       <r>    0.9622    1.0000 </r>
       <r>    1.5077    1.0000 </r>
       <r>    3.2979    0.0000 </r>
       <r>    3.7774    0.0000 </r>
       <r>    3.8460    0.0000 </r>
       <r>    4.0343    0.0000 </r>
      </set>
      <set comment="kpoint 17">
       <r>  -16.2919    1.0000 </r>
[...]
       <r>  -14.9708    1.0000 </r>
       <r>   -3.2152    1.0000 </r>
       <r>   -2.9121    1.0000 </r>
       <r>   -2.6602    1.0000 </r>
       <r>   -2.5241    1.0000 </r>
       <r>   -2.0179    1.0000 </r>
       <r>   -1.5548    1.0000 </r>
       <r>   -1.1118    1.0000 </r>
       <r>   -1.0155    1.0000 </r>
       <r>    0.2035    1.0000 </r>
       <r>    0.3150    1.0000 </r>
       <r>    0.6770    1.0000 </r>
       <r>    0.8801    1.0000 </r>
       <r>    3.5276    0.0000 </r>
       <r>    3.9430    0.0000 </r>
       <r>    4.5801    0.0000 </r>
       <r>    4.9706    0.0000 </r>
      </set>
      <set comment="kpoint 429">
       <r>  -15.3164    1.0000 </r>
       <r>  -15.2808    1.0000 </r>
       <r>  -15.0416    1.0000 </r>
       <r>  -15.0039    1.0000 </r>
       <r>   -3.1470    1.0000 </r>
       <r>   -3.0457    1.0000 </r>
       <r>   -2.6073    1.0000 </r>
       <r>   -2.5623    1.0000 </r>
       <r>   -1.8869    1.0000 </r>
       <r>   -1.7299    1.0000 </r>
       <r>   -1.0811    1.0000 </r>
       <r>   -1.0478    1.0000 </r>
       <r>    0.2608    1.0000 </r>
       <r>    0.2989    1.0000 </r>
       <r>    0.8018    1.0000 </r>
       <r>    0.8726    1.0000 </r>
       <r>    3.6427    0.0000 </r>
       <r>    3.7901    0.0000 </r>
       <r>    4.7009    0.0000 </r>
       <r>    4.8372    0.0000 </r>
      </set>
      <set comment="kpoint 430">
       <r>  -15.3179    1.0000 </r>
       <r>  -15.2368    1.0000 </r>
       <r>  -15.0867    1.0000 </r>
       <r>  -15.0016    1.0000 </r>
       <r>   -3.1600    1.0000 </r>
       <r>   -2.8677    1.0000 </r>
       <r>   -2.7859    1.0000 </r>
       <r>   -2.5906    1.0000 </r>
       <r>   -1.9552    1.0000 </r>
       <r>   -1.6620    1.0000 </r>
       <r>   -1.1243    1.0000 </r>
       <r>   -1.0509    1.0000 </r>
       <r>    0.2894    1.0000 </r>
       <r>    0.3544    1.0000 </r>
       <r>    0.7800    1.0000 </r>
       <r>    0.9179    1.0000 </r>
       <r>    3.6419    0.0000 </r>
       <r>    3.9862    0.0000 </r>
       <r>    4.5157    0.0000 </r>
       <r>    4.8443    0.0000 </r>
      </set>
      <set comment="kpoint 431">
       <r>  -15.2848    1.0000 </r>
       <r>  -15.2540    1.0000 </r>
       <r>  -15.0680    1.0000 </r>
       <r>  -15.0358    1.0000 </r>
       <r>   -3.0786    1.0000 </r>
       <r>   -2.9714    1.0000 </r>
       <r>   -2.7396    1.0000 </r>
       <r>   -2.6640    1.0000 </r>
       <r>   -1.8716    1.0000 </r>
       <r>   -1.7717    1.0000 </r>
       <r>   -1.1114    1.0000 </r>
       <r>   -1.0845    1.0000 </r>
       <r>    0.3407    1.0000 </r>
       <r>    0.3623    1.0000 </r>
       <r>    0.8655    1.0000 </r>
       <r>    0.9141    1.0000 </r>
       <r>    3.7765    0.0000 </r>
       <r>    3.9098    0.0000 </r>
       <r>    4.5766    0.0000 </r>
       <r>    4.7038    0.0000 </r>
      </set>
      <set comment="kpoint 432">
       <r>  -15.2569    1.0000 </r>
       <r>  -15.2436    1.0000 </r>
       <r>  -15.0778    1.0000 </r>
       <r>  -15.0640    1.0000 </r>
       <r>   -2.9913    1.0000 </r>
       <r>   -2.9127    1.0000 </r>
       <r>   -2.8352    1.0000 </r>
       <r>   -2.7665    1.0000 </r>
       <r>   -1.8430    1.0000 </r>
       <r>   -1.8088    1.0000 </r>
       <r>   -1.1205    1.0000 </r>
       <r>   -1.1103    1.0000 </r>
       <r>    0.3831    1.0000 </r>
       <r>    0.3901    1.0000 </r>
       <r>    0.9118    1.0000 </r>
       <r>    0.9290    1.0000 </r>
       <r>    3.8990    0.0000 </r>
       <r>    3.9596    0.0000 </r>
       <r>    4.5223    0.0000 </r>
       <r>    4.5806    0.0000 </r>
      </set>
     </set>
    </set>
   </array>
  </eigenvalues>
  <separator name="orbital magnetization" >
   <v name="MAGDIPOLOUT">      0.00000000      0.00000000      0.00000000</v>
  </separator>
  <dos>
   <i name="efermi">      1.81051991 </i>
   <total>
    <array>
     <dimension dim="1">gridpoints</dimension>
     <dimension dim="2">spin</dimension>
     <field>energy</field>
     <field>total</field>
     <field>integrated</field>
     <set>
      <set comment="spin 1">
       <r>   -17.5400     0.0000     0.0000 </r>
       <r>   -17.4604     0.0000     0.0000 </r>
       <r>   -17.3808     0.0000     0.0000 </r>
       <r>   -17.3011     0.0000     0.0000 </r>
       <r>   -17.2215     0.0000     0.0000 </r>
       <r>   -17.1419     0.0000     0.0000 </r>
       <r>   -17.0623     0.0000     0.0000 </r>
       <r>   -16.9826     0.0000     0.0000 </r>
       <r>   -16.9030     0.0000     0.0000 </r>
       <r>   -16.8234     0.0000     0.0000 </r>
       <r>   -16.7438     0.0000     0.0000 </r>
       <r>   -16.6642     0.0000     0.0000 </r>
       <r>   -16.5845     0.0000     0.0000 </r>
       <r>   -16.5049     0.0007     0.0001 </r>
       <r>   -16.4253     0.0809     0.0065 </r>
       <r>   -16.3457     0.3699     0.0359 </r>
       <r>   -16.2661     0.6007     0.0838 </r>
       <r>   -16.1864     0.7998     0.1475 </r>
       <r>   -16.1068     0.9968     0.2268 </r>
       <r>   -16.0272     1.2061     0.3229 </r>
       <r>   -15.9476     1.5254     0.4443 </r>
       <r>   -15.8679     1.8572     0.5922 </r>
       <r>   -15.7883     2.4294     0.7856 </r>
       <r>   -15.7087     2.9555     1.0209 </r>
       <r>   -15.6291     2.9765     1.2579 </r>
       <r>   -15.5495     3.3991     1.5286 </r>
       <r>   -15.4698     3.8442     1.8347 </r>
       <r>   -15.3902     6.5554     2.3566 </r>
       <r>   -15.3106     8.3262     3.0196 </r>
       <r>   -15.2310     6.7020     3.5532 </r>
       <r>   -15.1514     5.1478     3.9631 </r>
       <r>   -15.0717    10.2691     4.7807 </r>
       <r>   -14.9921    17.6669     6.1874 </r>
       <r>   -14.9125    16.0296     7.4637 </r>
       <r>   -14.8329     5.7302     7.9199 </r>
       <r>   -14.7532     0.9937     7.9990 </r>
       <r>   -14.6736     0.0122     8.0000 </r>
       <r>   -14.5940     0.0000     8.0000 </r>
       <r>   -14.5144     0.0000     8.0000 </r>
       <r>   -14.4348     0.0000     8.0000 </r>
       <r>   -14.3551     0.0000     8.0000 </r>
       <r>   -14.2755     0.0000     8.0000 </r>
       <r>   -14.1959     0.0000     8.0000 </r>
       <r>   -14.1163     0.0000     8.0000 </r>
       <r>   -14.0367     0.0000     8.0000 </r>
       <r>   -13.9570     0.0000     8.0000 </r>
       <r>   -13.8774     0.0000     8.0000 </r>
       <r>   -13.7978     0.0000     8.0000 </r>
       <r>   -13.7182     0.0000     8.0000 </r>
       <r>   -13.6385     0.0000     8.0000 </r>
       <r>   -13.5589     0.0000     8.0000 </r>
       <r>   -13.4793     0.0000     8.0000 </r>
       <r>   -13.3997     0.0000     8.0000 </r>
       <r>   -13.3201     0.0000     8.0000 </r>
       <r>   -13.2404     0.0000     8.0000 </r>
       <r>   -13.1608     0.0000     8.0000 </r>
       <r>   -13.0812     0.0000     8.0000 </r>
       <r>   -13.0016     0.0000     8.0000 </r>
       <r>   -12.9220     0.0000     8.0000 </r>
       <r>   -12.8423     0.0000     8.0000 </r>
       <r>   -12.7627     0.0000     8.0000 </r>
       <r>   -12.6831     0.0000     8.0000 </r>
       <r>   -12.6035     0.0000     8.0000 </r>
       <r>   -12.5238     0.0000     8.0000 </r>
       <r>   -12.4442     0.0000     8.0000 </r>
       <r>   -12.3646     0.0000     8.0000 </r>
       <r>   -12.2850     0.0000     8.0000 </r>
       <r>   -12.2054     0.0000     8.0000 </r>
       <r>   -12.1257     0.0000     8.0000 </r>
       <r>   -12.0461     0.0000     8.0000 </r>
       <r>   -11.9665     0.0000     8.0000 </r>
       <r>   -11.8869     0.0000     8.0000 </r>
       <r>   -11.8072     0.0000     8.0000 </r>
       <r>   -11.7276     0.0000     8.0000 </r>
       <r>   -11.6480     0.0000     8.0000 </r>
       <r>   -11.5684     0.0000     8.0000 </r>
       <r>   -11.4888     0.0000     8.0000 </r>
       <r>   -11.4091     0.0000     8.0000 </r>
       <r>   -11.3295     0.0000     8.0000 </r>
       <r>   -11.2499     0.0000     8.0000 </r>
       <r>   -11.1703     0.0000     8.0000 </r>
       <r>   -11.0907     0.0000     8.0000 </r>
       <r>   -11.0110     0.0000     8.0000 </r>
       <r>   -10.9314     0.0000     8.0000 </r>
       <r>   -10.8518     0.0000     8.0000 </r>
       <r>   -10.7722     0.0000     8.0000 </r>
       <r>   -10.6925     0.0000     8.0000 </r>
       <r>   -10.6129     0.0000     8.0000 </r>
       <r>   -10.5333     0.0000     8.0000 </r>
       <r>   -10.4537     0.0000     8.0000 </r>
       <r>   -10.3741     0.0000     8.0000 </r>
       <r>   -10.2944     0.0000     8.0000 </r>
       <r>   -10.2148     0.0000     8.0000 </r>
       <r>   -10.1352     0.0000     8.0000 </r>
       <r>   -10.0556     0.0000     8.0000 </r>
       <r>    -9.9760     0.0000     8.0000 </r>
       <r>    -9.8963     0.0000     8.0000 </r>
       <r>    -9.8167     0.0000     8.0000 </r>
       <r>    -9.7371     0.0000     8.0000 </r>
       <r>    -9.6575     0.0000     8.0000 </r>
       <r>    -9.5778     0.0000     8.0000 </r>
       <r>    -9.4982     0.0000     8.0000 </r>
       <r>    -9.4186     0.0000     8.0000 </r>
       <r>    -9.3390     0.0000     8.0000 </r>
       <r>    -9.2594     0.0000     8.0000 </r>
       <r>    -9.1797     0.0000     8.0000 </r>
       <r>    -9.1001     0.0000     8.0000 </r>
       <r>    -9.0205     0.0000     8.0000 </r>
       <r>    -8.9409     0.0000     8.0000 </r>
       <r>    -8.8613     0.0000     8.0000 </r>
       <r>    -8.7816     0.0000     8.0000 </r>
       <r>    -8.7020     0.0000     8.0000 </r>
       <r>    -8.6224     0.0000     8.0000 </r>
       <r>    -8.5428     0.0000     8.0000 </r>
       <r>    -8.4631     0.0000     8.0000 </r>
       <r>    -8.3835     0.0000     8.0000 </r>
       <r>    -8.3039     0.0000     8.0000 </r>
       <r>    -8.2243     0.0000     8.0000 </r>
       <r>    -8.1447     0.0000     8.0000 </r>
       <r>    -8.0650     0.0000     8.0000 </r>
       <r>    -7.9854     0.0000     8.0000 </r>
       <r>    -7.9058     0.0000     8.0000 </r>
       <r>    -7.8262     0.0000     8.0000 </r>
       <r>    -7.7466     0.0000     8.0000 </r>
       <r>    -7.6669     0.0000     8.0000 </r>
       <r>    -7.5873     0.0000     8.0000 </r>
       <r>    -7.5077     0.0000     8.0000 </r>
       <r>    -7.4281     0.0000     8.0000 </r>
       <r>    -7.3484     0.0000     8.0000 </r>
       <r>    -7.2688     0.0000     8.0000 </r>
       <r>    -7.1892     0.0000     8.0000 </r>
       <r>    -7.1096     0.0000     8.0000 </r>
       <r>    -7.0300     0.0000     8.0000 </r>
       <r>    -6.9503     0.0000     8.0000 </r>
       <r>    -6.8707     0.0000     8.0000 </r>
       <r>    -6.7911     0.0000     8.0000 </r>
       <r>    -6.7115     0.0000     8.0000 </r>
       <r>    -6.6318     0.0000     8.0000 </r>
       <r>    -6.5522     0.0000     8.0000 </r>
       <r>    -6.4726     0.0000     8.0000 </r>
       <r>    -6.3930     0.0000     8.0000 </r>
       <r>    -6.3134     0.0000     8.0000 </r>
       <r>    -6.2337     0.0000     8.0000 </r>
       <r>    -6.1541     0.0000     8.0000 </r>
       <r>    -6.0745     0.0000     8.0000 </r>
       <r>    -5.9949     0.0000     8.0000 </r>
       <r>    -5.9153     0.0000     8.0000 </r>
       <r>    -5.8356     0.0000     8.0000 </r>
       <r>    -5.7560     0.0000     8.0000 </r>
       <r>    -5.6764     0.0000     8.0000 </r>
       <r>    -5.5968     0.0000     8.0000 </r>
       <r>    -5.5171     0.0000     8.0000 </r>
       <r>    -5.4375     0.0000     8.0000 </r>
       <r>    -5.3579     0.0000     8.0000 </r>
       <r>    -5.2783     0.0000     8.0000 </r>
       <r>    -5.1987     0.0000     8.0000 </r>
       <r>    -5.1190     0.0000     8.0000 </r>
       <r>    -5.0394     0.0000     8.0000 </r>
       <r>    -4.9598     0.0000     8.0000 </r>
       <r>    -4.8802     0.0000     8.0000 </r>
       <r>    -4.8006     0.0000     8.0000 </r>
       <r>    -4.7209     0.0000     8.0000 </r>
       <r>    -4.6413     0.0000     8.0000 </r>
       <r>    -4.5617     0.0000     8.0000 </r>
       <r>    -4.4821     0.0000     8.0000 </r>
       <r>    -4.4024     0.0000     8.0000 </r>
       <r>    -4.3228     0.0000     8.0000 </r>
       <r>    -4.2432     0.0000     8.0000 </r>
       <r>    -4.1636     0.0000     8.0000 </r>
       <r>    -4.0840     0.0000     8.0000 </r>
       <r>    -4.0043     0.0083     8.0007 </r>
       <r>    -3.9247     0.1005     8.0087 </r>
       <r>    -3.8451     0.2559     8.0290 </r>
       <r>    -3.7655     0.6450     8.0804 </r>
       <r>    -3.6859     1.4115     8.1928 </r>
       <r>    -3.6062     1.4710     8.3099 </r>
       <r>    -3.5266     1.6885     8.4443 </r>
       <r>    -3.4470     1.8135     8.5887 </r>
       <r>    -3.3674     2.0677     8.7534 </r>
       <r>    -3.2877     2.1923     8.9279 </r>
       <r>    -3.2081     3.6691     9.2201 </r>
       <r>    -3.1285     4.9282     9.6125 </r>
       <r>    -3.0489     4.9053    10.0030 </r>
       <r>    -2.9693     5.2613    10.4219 </r>
       <r>    -2.8896     6.1973    10.9154 </r>
       <r>    -2.8100     6.4113    11.4259 </r>
       <r>    -2.7304     7.3775    12.0133 </r>
       <r>    -2.6508     8.3146    12.6753 </r>
       <r>    -2.5712     7.8535    13.3006 </r>
       <r>    -2.4915     6.6189    13.8276 </r>
       <r>    -2.4119     7.0696    14.3905 </r>
       <r>    -2.3323     7.7918    15.0109 </r>
       <r>    -2.2527     5.4804    15.4472 </r>
       <r>    -2.1730     3.7703    15.7474 </r>
       <r>    -2.0934     4.6901    16.1209 </r>
       <r>    -2.0138     5.3082    16.5435 </r>
       <r>    -1.9342     3.2986    16.8062 </r>
       <r>    -1.8546     3.6901    17.1000 </r>
       <r>    -1.7749     3.5564    17.3831 </r>
       <r>    -1.6953     3.9778    17.6998 </r>
       <r>    -1.6157     3.9088    18.0111 </r>
       <r>    -1.5361     3.7969    18.3134 </r>
       <r>    -1.4565     3.4965    18.5918 </r>
       <r>    -1.3768     4.0505    18.9143 </r>
       <r>    -1.2972     3.7308    19.2113 </r>
       <r>    -1.2176     4.2860    19.5526 </r>
       <r>    -1.1380     4.6729    19.9247 </r>
       <r>    -1.0583     5.6372    20.3735 </r>
       <r>    -0.9787     5.7102    20.8282 </r>
       <r>    -0.8991     5.9819    21.3044 </r>
       <r>    -0.8195     5.5755    21.7484 </r>
       <r>    -0.7399     5.5842    22.1930 </r>
       <r>    -0.6602     6.2503    22.6906 </r>
       <r>    -0.5806     4.8491    23.0767 </r>
       <r>    -0.5010     5.5385    23.5177 </r>
       <r>    -0.4214     4.7729    23.8977 </r>
       <r>    -0.3417     4.9400    24.2911 </r>
       <r>    -0.2621     6.3510    24.7968 </r>
       <r>    -0.1825     6.2081    25.2911 </r>
       <r>    -0.1029     5.3973    25.7208 </r>
       <r>    -0.0233     6.0246    26.2005 </r>
       <r>     0.0564     6.3979    26.7099 </r>
       <r>     0.1360     6.0880    27.1946 </r>
       <r>     0.2156     5.3498    27.6206 </r>
       <r>     0.2952     4.9926    28.0181 </r>
       <r>     0.3748     4.3816    28.3670 </r>
       <r>     0.4545     5.0981    28.7729 </r>
       <r>     0.5341     4.7126    29.1481 </r>
       <r>     0.6137     4.9060    29.5387 </r>
       <r>     0.6933     5.1579    29.9494 </r>
       <r>     0.7730     5.5018    30.3875 </r>
       <r>     0.8526     5.3009    30.8095 </r>
       <r>     0.9322     4.4656    31.1651 </r>
       <r>     1.0118     2.7759    31.3861 </r>
       <r>     1.0914     1.9891    31.5445 </r>
       <r>     1.1711     1.6466    31.6756 </r>
       <r>     1.2507     1.1888    31.7703 </r>
       <r>     1.3303     0.9542    31.8462 </r>
       <r>     1.4099     0.7600    31.9068 </r>
       <r>     1.4895     0.6366    31.9574 </r>
       <r>     1.5692     0.4385    31.9924 </r>
       <r>     1.6488     0.0956    32.0000 </r>
       <r>     1.7284     0.0005    32.0000 </r>
       <r>     1.8080     0.0000    32.0000 </r>
       <r>     1.8877     0.0000    32.0000 </r>
       <r>     1.9673     0.0000    32.0000 </r>
       <r>     2.0469     0.0000    32.0000 </r>
       <r>     2.1265     0.0000    32.0000 </r>
       <r>     2.2061     0.0000    32.0000 </r>
       <r>     2.2858     0.0000    32.0000 </r>
       <r>     2.3654     0.0000    32.0000 </r>
       <r>     2.4450     0.0000    32.0000 </r>
       <r>     2.5246     0.0000    32.0000 </r>
       <r>     2.6042     0.0000    32.0000 </r>
       <r>     2.6839     0.0000    32.0000 </r>
       <r>     2.7635     0.0000    32.0000 </r>
       <r>     2.8431     0.0000    32.0000 </r>
       <r>     2.9227     0.0000    32.0000 </r>
       <r>     3.0024     0.0000    32.0000 </r>
       <r>     3.0820     0.0000    32.0000 </r>
       <r>     3.1616     0.0000    32.0000 </r>
       <r>     3.2412     0.0257    32.0021 </r>
       <r>     3.3208     0.6719    32.0555 </r>
       <r>     3.4005     2.1361    32.2256 </r>
       <r>     3.4801     3.9797    32.5425 </r>
       <r>     3.5597     4.4387    32.8959 </r>
       <r>     3.6393     4.3649    33.2434 </r>
       <r>     3.7189     4.4176    33.5952 </r>
       <r>     3.7986     4.9038    33.9856 </r>
       <r>     3.8782     6.3915    34.4945 </r>
       <r>     3.9578     8.3497    35.1593 </r>
       <r>     4.0374     7.7841    35.7791 </r>
       <r>     4.1171     6.9470    36.3323 </r>
       <r>     4.1967     6.2175    36.8273 </r>
       <r>     4.2763     5.7167    37.2825 </r>
       <r>     4.3559     5.3065    37.7050 </r>
       <r>     4.4355     4.9241    38.0970 </r>
       <r>     4.5152     4.2518    38.4356 </r>
       <r>     4.5948     3.4951    38.7139 </r>
       <r>     4.6744     2.4954    38.9126 </r>
       <r>     4.7540     2.2807    39.0941 </r>
       <r>     4.8336     1.8849    39.2442 </r>
       <r>     4.9133     2.0071    39.4040 </r>
       <r>     4.9929     2.0823    39.5698 </r>
       <r>     5.0725     1.9326    39.7237 </r>
       <r>     5.1521     1.9500    39.8790 </r>
       <r>     5.2318     1.2448    39.9781 </r>
       <r>     5.3114     0.2709    39.9997 </r>
       <r>     5.3910     0.0044    40.0000 </r>
       <r>     5.4706     0.0000    40.0000 </r>
       <r>     5.5502     0.0000    40.0000 </r>
       <r>     5.6299     0.0000    40.0000 </r>
       <r>     5.7095     0.0000    40.0000 </r>
       <r>     5.7891     0.0000    40.0000 </r>
       <r>     5.8687     0.0000    40.0000 </r>
       <r>     5.9484     0.0000    40.0000 </r>
       <r>     6.0280     0.0000    40.0000 </r>
       <r>     6.1076     0.0000    40.0000 </r>
       <r>     6.1872     0.0000    40.0000 </r>
       <r>     6.2668     0.0000    40.0000 </r>
       <r>     6.3465     0.0000    40.0000 </r>
      </set>
     </set>
    </array>
   </total>
  </dos>
 </calculation>
 <structure name="finalpos" >
  <crystal>
   <varray name="basis" >
    <v>       4.66178986       0.00000000       0.00000000 </v>
    <v>       0.00000000       4.66178986       0.00000000 </v>
    <v>       0.00000000       0.00000000       2.96880128 </v>
   </varray>
   <i name="volume">     64.51883454 </i>
   <varray name="rec_basis" >
    <v>       0.21450988       0.00000000       0.00000000 </v>
    <v>       0.00000000       0.21450988       0.00000000 </v>
    <v>       0.00000000       0.00000000       0.33683629 </v>
   </varray>
  </crystal>
  <varray name="positions" >
   <v>       0.00000000       0.00000000       0.00000000 </v>
   <v>       0.50000000       0.50000000       0.50000000 </v>
   <v>       0.19532460       0.80467540       0.50000000 </v>
   <v>       0.80467540       0.19532460       0.50000000 </v>
   <v>       0.69532460       0.69532460       0.00000000 </v>
   <v>       0.30467540       0.30467540       0.00000000 </v>
  </varray>
 </structure>
</modeling>
